 vasp.5.4.4.18Apr17-6-g9f103f2a35 (build Apr 02 2018 08:25:54) complex          
  
 executed on             LinuxIFC date 2018.04.06  19:49:03
 running on   32 total cores
 distrk:  each k-point on   32 cores,    1 groups
 distr:  one band on NCORES_PER_BAND=  32 cores,    1 groups


--------------------------------------------------------------------------------------------------------


 INCAR:
 POTCAR:    PAW O 22Mar2012                       
 POTCAR:    PAW U 17Apr2000                       

 ----------------------------------------------------------------------------- 
|                                                                             |
|           W    W    AA    RRRRR   N    N  II  N    N   GGGG   !!!           |
|           W    W   A  A   R    R  NN   N  II  NN   N  G    G  !!!           |
|           W    W  A    A  R    R  N N  N  II  N N  N  G       !!!           |
|           W WW W  AAAAAA  RRRRR   N  N N  II  N  N N  G  GGG   !            |
|           WW  WW  A    A  R   R   N   NN  II  N   NN  G    G                |
|           W    W  A    A  R    R  N    N  II  N    N   GGGG   !!!           |
|                                                                             |
|      For optimal performance we recommend to set                            |
|        NCORE= 4 - approx SQRT( number of cores)                             |
|      NCORE specifies how many cores store one orbital (NPAR=cpu/NCORE).     |
|      This setting can  greatly improve the performance of VASP for DFT.     |
|      The default,   NCORE=1            might be grossly inefficient         |
|      on modern multi-core architectures or massively parallel machines.     |
|      Do your own testing !!!!                                               |
|      Unfortunately you need to use the default for GW and RPA calculations. |
|      (for HF NCORE is supported but not extensively tested yet)             |
|                                                                             |
 ----------------------------------------------------------------------------- 

 POTCAR:    PAW O 22Mar2012                       
  local pseudopotential read in
  partial core-charges read in
  partial kinetic energy density read in
  kinetic energy density of atom read in
  atomic valenz-charges read in
  non local Contribution for L=           0  read in
    real space projection operators read in
  non local Contribution for L=           0  read in
    real space projection operators read in
  non local Contribution for L=           1  read in
    real space projection operators read in
  non local Contribution for L=           1  read in
    real space projection operators read in
    PAW grid and wavefunctions read in
 
   number of l-projection  operators is LMAX  =           4
   number of lm-projection operators is LMMAX =           8
 
 POTCAR:    PAW U 17Apr2000                       
  local pseudopotential read in
  partial core-charges read in
  partial kinetic energy density read in
  atomic valenz-charges read in
  non local Contribution for L=           0  read in
    real space projection operators read in
  non local Contribution for L=           0  read in
    real space projection operators read in
  non local Contribution for L=           1  read in
    real space projection operators read in
  non local Contribution for L=           1  read in
    real space projection operators read in
  non local Contribution for L=           2  read in
    real space projection operators read in
  non local Contribution for L=           2  read in
    real space projection operators read in
  non local Contribution for L=           3  read in
    real space projection operators read in
  non local Contribution for L=           3  read in
    real space projection operators read in
    PAW grid and wavefunctions read in
 
   number of l-projection  operators is LMAX  =           8
   number of lm-projection operators is LMMAX =          32
 
 Optimization of the real space projectors (new method)

 maximal supplied QI-value         = 24.76
 optimisation between [QCUT,QGAM] = [ 12.38, 25.00] = [ 42.90,175.06] Ry 
 Optimized for a Real-space Cutoff    1.16 Angstroem

   l    n(q)    QCUT    max X(q) W(low)/X(q) W(high)/X(q)  e(spline) 
   0      9    12.378    20.659    0.16E-03    0.72E-05    0.32E-06
   0      9    12.378    15.633    0.18E-03    0.84E-05    0.34E-06
   1      8    12.378     5.864    0.19E-03    0.15E-03    0.30E-06
   1      8    12.378     5.285    0.17E-03    0.14E-03    0.26E-06
 Optimization of the real space projectors (new method)

 maximal supplied QI-value         = 13.42
 optimisation between [QCUT,QGAM] = [ 12.48, 25.09] = [ 43.60,176.28] Ry 
 Optimized for a Real-space Cutoff    1.61 Angstroem

   l    n(q)    QCUT    max X(q) W(low)/X(q) W(high)/X(q)  e(spline) 
   0     12    12.478    11.588    0.21E-04    0.66E-05    0.15E-06
   0     12    12.478     9.707    0.31E-04    0.11E-04    0.26E-06
   1     12    12.478     4.435    0.10E-04    0.98E-05    0.96E-07
   1     12    12.478     4.200    0.16E-04    0.13E-04    0.14E-06
   2     11    12.478    63.768    0.46E-04    0.25E-04    0.34E-06
   2     11    12.478    46.564    0.44E-04    0.24E-04    0.32E-06
   3     11    12.478    59.735    0.13E-03    0.12E-03    0.21E-05
   3     11    12.478    55.756    0.13E-03    0.12E-03    0.21E-05
  PAW O 22Mar2012                       :
 energy of atom  1       EATOM= -431.4380
 kinetic energy error for atom=    0.0165 (will be added to EATOM!!)
  PAW U 17Apr2000                       :
 energy of atom  2       EATOM=-1409.6168
 kinetic energy error for atom=    0.0010 (will be added to EATOM!!)
 
 
 POSCAR: O U                                     
  positions in direct lattice
  No initial velocities read in
 exchange correlation table for  LEXCH =        2
   RHO(1)=    0.500       N(1)  =     2000
   RHO(2)=  100.500       N(2)  =     4000
 


--------------------------------------------------------------------------------------------------------


 ion  position               nearest neighbor table
   1  0.062  0.062  0.062- 129 2.35 133 2.35 145 2.35 130 2.35
   2  0.312  0.062  0.062- 130 2.35 134 2.35 146 2.35 131 2.35
   3  0.562  0.062  0.062- 131 2.35 135 2.35 147 2.35 132 2.35
   4  0.812  0.062  0.062- 132 2.35 136 2.35 148 2.35 129 2.36
   5  0.062  0.312  0.062- 133 2.35 137 2.35 149 2.35 134 2.35
   6  0.312  0.312  0.062- 134 2.35 138 2.35 150 2.35 135 2.35
   7  0.562  0.312  0.062- 135 2.35 139 2.35 151 2.35 136 2.35
   8  0.812  0.312  0.062- 136 2.35 140 2.35 152 2.35 133 2.35
   9  0.062  0.562  0.062- 137 2.35 141 2.35 153 2.35 138 2.35
  10  0.312  0.562  0.062- 138 2.35 142 2.35 154 2.35 139 2.35
  11  0.562  0.562  0.062- 139 2.35 143 2.35 155 2.35 140 2.35
  12  0.812  0.562  0.062- 140 2.35 144 2.35 156 2.35 137 2.35
  13  0.062  0.812  0.062- 141 2.35 157 2.35 142 2.35 129 2.35
  14  0.312  0.812  0.062- 142 2.35 130 2.35 158 2.35 143 2.35
  15  0.562  0.812  0.062- 143 2.35 131 2.35 159 2.35 144 2.35
  16  0.812  0.812  0.062- 144 2.35 132 2.35 160 2.35 141 2.35
  17  0.062  0.062  0.312- 145 2.35 149 2.35 161 2.35 146 2.35
  18  0.312  0.062  0.312- 146 2.35 150 2.35 162 2.35 147 2.35
  19  0.562  0.062  0.312- 147 2.35 151 2.35 163 2.35 148 2.35
  20  0.812  0.062  0.312- 148 2.35 152 2.35 164 2.35 145 2.35
  21  0.062  0.312  0.312- 149 2.35 153 2.35 165 2.35 150 2.35
  22  0.312  0.312  0.312- 150 2.35 154 2.35 166 2.35 151 2.35
  23  0.562  0.312  0.312- 151 2.35 155 2.35 167 2.35 152 2.35
  24  0.812  0.312  0.312- 152 2.35 156 2.35 168 2.35 149 2.35
  25  0.062  0.562  0.312- 153 2.35 157 2.35 169 2.35 154 2.35
  26  0.312  0.562  0.312- 154 2.35 158 2.35 170 2.35 155 2.35
  27  0.562  0.562  0.312- 155 2.35 159 2.35 171 2.35 156 2.35
  28  0.812  0.562  0.312- 156 2.35 160 2.35 172 2.35 153 2.35
  29  0.062  0.812  0.312- 157 2.35 145 2.35 173 2.35 158 2.35
  30  0.312  0.812  0.312- 158 2.35 146 2.35 174 2.35 159 2.35
  31  0.562  0.812  0.312- 159 2.35 147 2.35 175 2.35 160 2.35
  32  0.812  0.812  0.312- 160 2.35 148 2.35 176 2.35 157 2.35
  33  0.062  0.062  0.562- 161 2.35 165 2.35 177 2.35 162 2.35
  34  0.312  0.062  0.562- 162 2.35 166 2.35 178 2.35 163 2.35
  35  0.562  0.062  0.562- 163 2.35 167 2.35 179 2.35 164 2.35
  36  0.812  0.062  0.562- 164 2.35 168 2.35 180 2.35 161 2.35
  37  0.062  0.312  0.562- 165 2.35 169 2.35 181 2.35 166 2.35
  38  0.312  0.312  0.562- 166 2.35 170 2.35 182 2.35 167 2.35
  39  0.562  0.312  0.562- 167 2.35 171 2.35 183 2.35 168 2.35
  40  0.812  0.312  0.562- 168 2.35 172 2.35 184 2.35 165 2.35
  41  0.062  0.562  0.562- 169 2.35 173 2.35 185 2.35 170 2.35
  42  0.312  0.562  0.562- 170 2.35 174 2.35 186 2.35 171 2.35
  43  0.562  0.562  0.562- 171 2.35 175 2.35 187 2.35 172 2.35
  44  0.812  0.562  0.562- 172 2.35 176 2.35 188 2.35 169 2.35
  45  0.062  0.812  0.562- 173 2.35 161 2.35 189 2.35 174 2.35
  46  0.312  0.812  0.562- 174 2.35 162 2.35 190 2.35 175 2.35
  47  0.562  0.812  0.562- 175 2.35 163 2.35 191 2.35 176 2.35
  48  0.812  0.812  0.562- 176 2.35 164 2.35 192 2.35 173 2.35
  49  0.062  0.062  0.812- 177 2.35 181 2.35 178 2.35 129 2.35
  50  0.312  0.062  0.812- 178 2.35 182 2.35 130 2.35 179 2.35
  51  0.562  0.062  0.812- 179 2.35 183 2.35 131 2.35 180 2.35
  52  0.812  0.062  0.812- 180 2.35 184 2.35 132 2.35 177 2.35
  53  0.062  0.312  0.812- 181 2.35 185 2.35 133 2.35 182 2.35
  54  0.312  0.312  0.812- 182 2.35 186 2.35 134 2.35 183 2.35
  55  0.562  0.312  0.812- 183 2.35 187 2.35 135 2.35 184 2.35
  56  0.812  0.312  0.812- 184 2.35 188 2.35 136 2.35 181 2.35
  57  0.062  0.562  0.812- 185 2.35 189 2.35 137 2.35 186 2.35
  58  0.312  0.562  0.812- 186 2.35 190 2.35 138 2.35 187 2.35
  59  0.562  0.562  0.812- 187 2.35 191 2.35 139 2.35 188 2.35
  60  0.812  0.562  0.812- 188 2.35 192 2.35 140 2.35 185 2.35
  61  0.062  0.812  0.812- 189 2.35 177 2.35 141 2.35 190 2.35
  62  0.312  0.812  0.812- 190 2.35 178 2.35 142 2.35 191 2.35
  63  0.562  0.812  0.812- 191 2.35 179 2.35 143 2.35 192 2.35
  64  0.812  0.812  0.812- 192 2.35 180 2.35 144 2.35 189 2.35
  65  0.188  0.188  0.188- 150 2.35 146 2.35 134 2.35 149 2.35
  66  0.438  0.188  0.188- 151 2.35 147 2.35 135 2.35 150 2.35
  67  0.688  0.188  0.188- 152 2.35 148 2.35 136 2.35 151 2.35
  68  0.938  0.188  0.188- 149 2.35 145 2.35 133 2.35 152 2.35
  69  0.188  0.438  0.188- 154 2.35 150 2.35 138 2.35 153 2.35
  70  0.438  0.438  0.188- 155 2.35 151 2.35 139 2.35 154 2.35
  71  0.688  0.438  0.188- 156 2.35 152 2.35 140 2.35 155 2.35
  72  0.938  0.438  0.188- 153 2.35 149 2.35 137 2.35 156 2.35
  73  0.188  0.688  0.188- 158 2.35 154 2.35 142 2.35 157 2.35
  74  0.438  0.688  0.188- 159 2.35 155 2.35 143 2.35 158 2.35
  75  0.688  0.688  0.188- 160 2.35 156 2.35 144 2.35 159 2.35
  76  0.938  0.688  0.188- 157 2.35 153 2.35 141 2.35 160 2.35
  77  0.188  0.938  0.188- 146 2.35 158 2.35 130 2.35 145 2.35
  78  0.438  0.938  0.188- 147 2.35 159 2.35 131 2.35 146 2.35
  79  0.688  0.938  0.188- 148 2.35 160 2.35 132 2.35 147 2.35
  80  0.938  0.938  0.188- 145 2.35 157 2.35 148 2.35 129 2.35
  81  0.188  0.188  0.438- 166 2.35 162 2.35 150 2.35 165 2.35
  82  0.438  0.188  0.438- 167 2.35 163 2.35 151 2.35 166 2.35
  83  0.688  0.188  0.438- 168 2.35 164 2.35 152 2.35 167 2.35
  84  0.938  0.188  0.438- 165 2.35 161 2.35 149 2.35 168 2.35
  85  0.188  0.438  0.438- 170 2.35 166 2.35 154 2.35 169 2.35
  86  0.438  0.438  0.438- 171 2.35 167 2.35 155 2.35 170 2.35
  87  0.688  0.438  0.438- 172 2.35 168 2.35 156 2.35 171 2.35
  88  0.938  0.438  0.438- 169 2.35 165 2.35 153 2.35 172 2.35
  89  0.188  0.688  0.438- 174 2.35 170 2.35 158 2.35 173 2.35
  90  0.438  0.688  0.438- 175 2.35 171 2.35 159 2.35 174 2.35
  91  0.688  0.688  0.438- 176 2.35 172 2.35 160 2.35 175 2.35
  92  0.938  0.688  0.438- 173 2.35 169 2.35 157 2.35 176 2.35
  93  0.188  0.938  0.438- 162 2.35 174 2.35 146 2.35 161 2.35
  94  0.438  0.938  0.438- 163 2.35 175 2.35 147 2.35 162 2.35
  95  0.688  0.938  0.438- 164 2.35 176 2.35 148 2.35 163 2.35
  96  0.938  0.938  0.438- 161 2.35 173 2.35 145 2.35 164 2.35
  97  0.188  0.188  0.688- 182 2.35 178 2.35 166 2.35 181 2.35
  98  0.438  0.188  0.688- 183 2.35 179 2.35 167 2.35 182 2.35
  99  0.688  0.188  0.688- 184 2.35 180 2.35 168 2.35 183 2.35
 100  0.938  0.188  0.688- 181 2.35 177 2.35 165 2.35 184 2.35
 101  0.188  0.438  0.688- 186 2.35 182 2.35 170 2.35 185 2.35
 102  0.438  0.438  0.688- 187 2.35 183 2.35 171 2.35 186 2.35
 103  0.688  0.438  0.688- 188 2.35 184 2.35 172 2.35 187 2.35
 104  0.938  0.438  0.688- 185 2.35 181 2.35 169 2.35 188 2.35
 105  0.188  0.688  0.688- 190 2.35 186 2.35 174 2.35 189 2.35
 106  0.438  0.688  0.688- 191 2.35 187 2.35 175 2.35 190 2.35
 107  0.688  0.688  0.688- 192 2.35 188 2.35 176 2.35 191 2.35
 108  0.938  0.688  0.688- 189 2.35 185 2.35 173 2.35 192 2.35
 109  0.188  0.938  0.688- 178 2.35 190 2.35 162 2.35 177 2.35
 110  0.438  0.938  0.688- 179 2.35 191 2.35 163 2.35 178 2.35
 111  0.688  0.938  0.688- 180 2.35 192 2.35 164 2.35 179 2.35
 112  0.938  0.938  0.688- 177 2.35 189 2.35 161 2.35 180 2.35
 113  0.188  0.188  0.938- 134 2.35 130 2.35 182 2.35 133 2.35
 114  0.438  0.188  0.938- 135 2.35 131 2.35 183 2.35 134 2.35
 115  0.688  0.188  0.938- 136 2.35 132 2.35 184 2.35 135 2.35
 116  0.938  0.188  0.938- 133 2.35 181 2.35 136 2.35 129 2.35
 117  0.188  0.438  0.938- 138 2.35 134 2.35 186 2.35 137 2.35
 118  0.438  0.438  0.938- 139 2.35 135 2.35 187 2.35 138 2.35
 119  0.688  0.438  0.938- 140 2.35 136 2.35 188 2.35 139 2.35
 120  0.938  0.438  0.938- 137 2.35 133 2.35 185 2.35 140 2.35
 121  0.188  0.688  0.938- 142 2.35 138 2.35 190 2.35 141 2.35
 122  0.438  0.688  0.938- 143 2.35 139 2.35 191 2.35 142 2.35
 123  0.688  0.688  0.938- 144 2.35 140 2.35 192 2.35 143 2.35
 124  0.938  0.688  0.938- 141 2.35 137 2.35 189 2.35 144 2.35
 125  0.188  0.938  0.938- 129 2.35 130 2.35 142 2.35 178 2.35
 126  0.438  0.938  0.938- 131 2.35 143 2.35 179 2.35 130 2.35
 127  0.688  0.938  0.938- 132 2.35 144 2.35 180 2.35 131 2.35
 128  0.938  0.938  0.938- 141 2.35 177 2.35 132 2.35 129 2.36
 129  0.001  0.000  0.000-   1 2.35 125 2.35  13 2.35 116 2.35  49 2.35  80 2.35 128 2.36   4 2.36

 130  0.250  0.000  0.000-   2 2.35 125 2.35 113 2.35  14 2.35  50 2.35  77 2.35   1 2.35 126 2.35

 131  0.500  0.000  0.000-   3 2.35 126 2.35 114 2.35  15 2.35  51 2.35  78 2.35   2 2.35 127 2.35

 132  0.750  0.000  0.000-   4 2.35 127 2.35 115 2.35  16 2.35  52 2.35  79 2.35   3 2.35 128 2.35

 133  0.000  0.250  0.000-   5 2.35 116 2.35   1 2.35 120 2.35  53 2.35  68 2.35   8 2.35 113 2.35

 134  0.250  0.250  0.000-   6 2.35 113 2.35   2 2.35 117 2.35  54 2.35  65 2.35 114 2.35   5 2.35

 135  0.500  0.250  0.000-   7 2.35 114 2.35   3 2.35 118 2.35  55 2.35  66 2.35 115 2.35   6 2.35

 136  0.750  0.250  0.000-   8 2.35 115 2.35   4 2.35 119 2.35  56 2.35  67 2.35 116 2.35   7 2.35

 137  0.000  0.500  0.000-   9 2.35 120 2.35   5 2.35 124 2.35  57 2.35  72 2.35  12 2.35 117 2.35

 138  0.250  0.500  0.000-  10 2.35 117 2.35   6 2.35 121 2.35  58 2.35  69 2.35 118 2.35   9 2.35

 139  0.500  0.500  0.000-  11 2.35 118 2.35   7 2.35 122 2.35  59 2.35  70 2.35 119 2.35  10 2.35

 140  0.750  0.500  0.000-  12 2.35 119 2.35   8 2.35 123 2.35  60 2.35  71 2.35 120 2.35  11 2.35

 141  0.000  0.750  0.000-  13 2.35 124 2.35   9 2.35 128 2.35  61 2.35  76 2.35  16 2.35 121 2.35

 142  0.250  0.750  0.000-  14 2.35 121 2.35  10 2.35 125 2.35  62 2.35  73 2.35 122 2.35  13 2.35

 143  0.500  0.750  0.000-  15 2.35 122 2.35  11 2.35 126 2.35  63 2.35  74 2.35 123 2.35  14 2.35

 144  0.750  0.750  0.000-  16 2.35 123 2.35  12 2.35 127 2.35  64 2.35  75 2.35 124 2.35  15 2.35

 145  0.000  0.000  0.250-  17 2.35  80 2.35  68 2.35  29 2.35   1 2.35  96 2.35  20 2.35  77 2.35

 146  0.250  0.000  0.250-  18 2.35  77 2.35  65 2.35  30 2.35   2 2.35  93 2.35  78 2.35  17 2.35

 147  0.500  0.000  0.250-  19 2.35  78 2.35  66 2.35  31 2.35   3 2.35  94 2.35  79 2.35  18 2.35

 148  0.750  0.000  0.250-  20 2.35  79 2.35  67 2.35  32 2.35   4 2.35  95 2.35  80 2.35  19 2.35

 149  0.000  0.250  0.250-  21 2.35  68 2.35  17 2.35  72 2.35   5 2.35  84 2.35  65 2.35  24 2.35

 150  0.250  0.250  0.250-  22 2.35  65 2.35  18 2.35  69 2.35   6 2.35  81 2.35  21 2.35  66 2.35

 151  0.500  0.250  0.250-  23 2.35  66 2.35  19 2.35  70 2.35   7 2.35  82 2.35  22 2.35  67 2.35

 152  0.750  0.250  0.250-  24 2.35  67 2.35  20 2.35  71 2.35   8 2.35  83 2.35  23 2.35  68 2.35

 153  0.000  0.500  0.250-  25 2.35  72 2.35  21 2.35  76 2.35   9 2.35  88 2.35  69 2.35  28 2.35

 154  0.250  0.500  0.250-  26 2.35  69 2.35  22 2.35  73 2.35  10 2.35  85 2.35  25 2.35  70 2.35

 155  0.500  0.500  0.250-  27 2.35  70 2.35  23 2.35  74 2.35  11 2.35  86 2.35  26 2.35  71 2.35

 156  0.750  0.500  0.250-  28 2.35  71 2.35  24 2.35  75 2.35  12 2.35  87 2.35  27 2.35  72 2.35

 157  0.000  0.750  0.250-  29 2.35  76 2.35  25 2.35  80 2.35  13 2.35  92 2.35  73 2.35  32 2.35

 158  0.250  0.750  0.250-  30 2.35  73 2.35  26 2.35  77 2.35  14 2.35  89 2.35  29 2.35  74 2.35

 159  0.500  0.750  0.250-  31 2.35  74 2.35  27 2.35  78 2.35  15 2.35  90 2.35  30 2.35  75 2.35

 160  0.750  0.750  0.250-  32 2.35  75 2.35  28 2.35  79 2.35  16 2.35  91 2.35  31 2.35  76 2.35

 161  0.000  0.000  0.500-  33 2.35  96 2.35  84 2.35  45 2.35  17 2.35 112 2.35  36 2.35  93 2.35

 162  0.250  0.000  0.500-  34 2.35  93 2.35  81 2.35  46 2.35  18 2.35 109 2.35  94 2.35  33 2.35

 163  0.500  0.000  0.500-  35 2.35  94 2.35  82 2.35  47 2.35  19 2.35 110 2.35  95 2.35  34 2.35

 164  0.750  0.000  0.500-  36 2.35  95 2.35  83 2.35  48 2.35  20 2.35 111 2.35  96 2.35  35 2.35

 165  0.000  0.250  0.500-  37 2.35  84 2.35  33 2.35  88 2.35  21 2.35 100 2.35  81 2.35  40 2.35

 166  0.250  0.250  0.500-  38 2.35  81 2.35  34 2.35  85 2.35  22 2.35  97 2.35  37 2.35  82 2.35

 167  0.500  0.250  0.500-  39 2.35  82 2.35  35 2.35  86 2.35  23 2.35  98 2.35  38 2.35  83 2.35

 168  0.750  0.250  0.500-  40 2.35  83 2.35  36 2.35  87 2.35  24 2.35  99 2.35  39 2.35  84 2.35

 169  0.000  0.500  0.500-  41 2.35  88 2.35  37 2.35  92 2.35  25 2.35 104 2.35  85 2.35  44 2.35

 170  0.250  0.500  0.500-  42 2.35  85 2.35  38 2.35  89 2.35  26 2.35 101 2.35  41 2.35  86 2.35

 171  0.500  0.500  0.500-  43 2.35  86 2.35  39 2.35  90 2.35  27 2.35 102 2.35  42 2.35  87 2.35

 172  0.750  0.500  0.500-  44 2.35  87 2.35  40 2.35  91 2.35  28 2.35 103 2.35  43 2.35  88 2.35

 173  0.000  0.750  0.500-  45 2.35  92 2.35  41 2.35  96 2.35  29 2.35 108 2.35  89 2.35  48 2.35

 174  0.250  0.750  0.500-  46 2.35  89 2.35  42 2.35  93 2.35  30 2.35 105 2.35  45 2.35  90 2.35

 175  0.500  0.750  0.500-  47 2.35  90 2.35  43 2.35  94 2.35  31 2.35 106 2.35  46 2.35  91 2.35

 176  0.750  0.750  0.500-  48 2.35  91 2.35  44 2.35  95 2.35  32 2.35 107 2.35  47 2.35  92 2.35

 177  0.000  0.000  0.750-  49 2.35 112 2.35 100 2.35  61 2.35  33 2.35 128 2.35  52 2.35 109 2.35

 178  0.250  0.000  0.750-  50 2.35 109 2.35  97 2.35  62 2.35  34 2.35 125 2.35 110 2.35  49 2.35

 179  0.500  0.000  0.750-  51 2.35 110 2.35  98 2.35  63 2.35  35 2.35 126 2.35 111 2.35  50 2.35

 180  0.750  0.000  0.750-  52 2.35 111 2.35  99 2.35  64 2.35  36 2.35 127 2.35 112 2.35  51 2.35

 181  0.000  0.250  0.750-  53 2.35 100 2.35  49 2.35 104 2.35  37 2.35 116 2.35  97 2.35  56 2.35

 182  0.250  0.250  0.750-  54 2.35  97 2.35  50 2.35 101 2.35  38 2.35 113 2.35  53 2.35  98 2.35

 183  0.500  0.250  0.750-  55 2.35  98 2.35  51 2.35 102 2.35  39 2.35 114 2.35  54 2.35  99 2.35

 184  0.750  0.250  0.750-  56 2.35  99 2.35  52 2.35 103 2.35  40 2.35 115 2.35  55 2.35 100 2.35

 185  0.000  0.500  0.750-  57 2.35 104 2.35  53 2.35 108 2.35  41 2.35 120 2.35 101 2.35  60 2.35

 186  0.250  0.500  0.750-  58 2.35 101 2.35  54 2.35 105 2.35  42 2.35 117 2.35  57 2.35 102 2.35

 187  0.500  0.500  0.750-  59 2.35 102 2.35  55 2.35 106 2.35  43 2.35 118 2.35  58 2.35 103 2.35

 188  0.750  0.500  0.750-  60 2.35 103 2.35  56 2.35 107 2.35  44 2.35 119 2.35  59 2.35 104 2.35

 189  0.000  0.750  0.750-  61 2.35 108 2.35  57 2.35 112 2.35  45 2.35 124 2.35 105 2.35  64 2.35

 190  0.250  0.750  0.750-  62 2.35 105 2.35  58 2.35 109 2.35  46 2.35 121 2.35  61 2.35 106 2.35

 191  0.500  0.750  0.750-  63 2.35 106 2.35  59 2.35 110 2.35  47 2.35 122 2.35  62 2.35 107 2.35

 192  0.750  0.750  0.750-  64 2.35 107 2.35  60 2.35 111 2.35  48 2.35 123 2.35  63 2.35 108 2.35

 
  LATTYP: Found a face centered cubic cell.
 ALAT       =    21.7539907090
  
  Lattice vectors:
  
 A1 = (  15.3823943600,   0.0000000000,   0.0000000000)
 A2 = (   7.6911971600,  13.3215442800,   0.0000000000)
 A3 = (   7.6911971600,   4.4405147600,  12.5596724000)


Analysis of symmetry for initial positions (statically):
=====================================================================
 Subroutine PRICEL returns:
 Original cell was already a primitive cell.
 

 Routine SETGRP: Setting up the symmetry group for a 
 face centered cubic supercell.


 Subroutine GETGRP returns: Found  4 space group operations
 (whereof  4 operations were pure point group operations)
 out of a pool of 48 trial point group operations.


The static configuration has the point symmetry C_2v.


Analysis of symmetry for dynamics (positions and initial velocities):
=====================================================================
 Subroutine PRICEL returns:
 Original cell was already a primitive cell.
 

 Routine SETGRP: Setting up the symmetry group for a 
 face centered cubic supercell.


 Subroutine GETGRP returns: Found  4 space group operations
 (whereof  4 operations were pure point group operations)
 out of a pool of 48 trial point group operations.


The dynamic configuration has the point symmetry C_2v.


Analysis of structural, dynamic, and magnetic symmetry:
=====================================================================
 Subroutine PRICEL returns:
 Original cell was already a primitive cell.
 

 Routine SETGRP: Setting up the symmetry group for a 
 face centered cubic supercell.


 Subroutine GETGRP returns: Found  2 space group operations
 (whereof  2 operations were pure point group operations)
 out of a pool of 48 trial point group operations.


The magnetic configuration has the point symmetry C_1h.


 Subroutine INISYM returns: Found  2 space group operations
 (whereof  2 operations are pure point group operations),
 and found     1 'primitive' translations

 
 
 KPOINTS: Automatic mesh                          

Automatic generation of k-mesh.
Space group operators:
 irot       det(A)        alpha          n_x          n_y          n_z        tau_x        tau_y        tau_z
    1     1.000000     0.000000     1.000000     0.000000     0.000000     0.000000     0.000000     0.000000
    2    -1.000000   180.000000     0.000000    -0.577350     0.816497     0.000000     0.000000     0.000000
 
 Subroutine IBZKPT returns following result:
 ===========================================
 
 Found     24 irreducible k-points:
 
 Following reciprocal coordinates:
            Coordinates               Weight
  0.000000  0.000000  0.000000      1.000000
  0.250000  0.000000  0.000000      2.000000
  0.500000  0.000000  0.000000      1.000000
  0.000000  0.250000  0.000000      4.000000
  0.250000  0.250000  0.000000      4.000000
  0.500000  0.250000  0.000000      4.000000
 -0.250000  0.250000 -0.000000      4.000000
  0.000000  0.500000  0.000000      2.000000
  0.250000  0.500000  0.000000      4.000000
  0.500000  0.500000  0.000000      2.000000
  0.000000  0.250000  0.250000      2.000000
  0.250000  0.250000  0.250000      2.000000
  0.500000  0.250000  0.250000      2.000000
 -0.250000  0.250000  0.250000      2.000000
  0.000000  0.500000  0.250000      4.000000
  0.250000  0.500000  0.250000      4.000000
  0.500000  0.500000  0.250000      4.000000
 -0.250000  0.500000  0.250000      4.000000
  0.000000 -0.250000  0.250000      2.000000
  0.250000 -0.250000  0.250000      4.000000
  0.500000 -0.250000  0.250000      2.000000
  0.000000  0.500000  0.500000      1.000000
  0.250000  0.500000  0.500000      2.000000
  0.500000  0.500000  0.500000      1.000000
 
 Following cartesian coordinates:
            Coordinates               Weight
  0.000000  0.000000  0.000000      1.000000
  0.016252 -0.009383 -0.006635      2.000000
  0.032505 -0.018767 -0.013270      1.000000
  0.000000  0.018767 -0.006635      4.000000
  0.016252  0.009383 -0.013270      4.000000
  0.032505  0.000000 -0.019905      4.000000
 -0.016252  0.028150 -0.000000      4.000000
  0.000000  0.037533 -0.013270      2.000000
  0.016252  0.028150 -0.019905      4.000000
  0.032505  0.018767 -0.026540      2.000000
  0.000000  0.018767  0.013270      2.000000
  0.016252  0.009383  0.006635      2.000000
  0.032505  0.000000  0.000000      2.000000
 -0.016252  0.028150  0.019905      2.000000
  0.000000  0.037533  0.006635      4.000000
  0.016252  0.028150  0.000000      4.000000
  0.032505  0.018767 -0.006635      4.000000
 -0.016252  0.046916  0.013270      4.000000
  0.000000 -0.018767  0.026540      2.000000
  0.016252 -0.028150  0.019905      4.000000
  0.032505 -0.037533  0.013270      2.000000
  0.000000  0.037533  0.026540      1.000000
  0.016252  0.028150  0.019905      2.000000
  0.032505  0.018767  0.013270      1.000000
 


--------------------------------------------------------------------------------------------------------




 Dimension of arrays:
   k-points           NKPTS =     24   k-points in BZ     NKDIM =     24   number of bands    NBANDS=   1123
   number of dos      NEDOS =    301   number of ions     NIONS =    192
   non local maximal  LDIM  =      8   non local SUM 2l+1 LMDIM =     32
   total plane-waves  NPLWV = ******
   max r-space proj   IRMAX =  13564   max aug-charges    IRDMAX= 379397
   dimension x,y,z NGX =   126 NGY =  126 NGZ =  126
   dimension x,y,z NGXF=   252 NGYF=  252 NGZF=  252
   support grid    NGXF=   504 NGYF=  504 NGZF=  504
   ions per type =             128  64
   NGX,Y,Z   is equivalent  to a cutoff of  13.62, 13.62, 13.62 a.u.
   NGXF,Y,Z  is equivalent  to a cutoff of  27.24, 27.24, 27.24 a.u.

 SYSTEM =  No title                                
 POSCAR =  O U                                     

 Startparameter for this run:
   NWRITE =      1    write-flag & timer
   PREC   = accura    normal or accurate (medium, high low for compatibility)
   ISTART =      0    job   : 0-new  1-cont  2-samecut
   ICHARG =      2    charge: 1-file 2-atom 10-const
   ISPIN  =      2    spin polarized calculation?
   LNONCOLLINEAR =      F non collinear calculations
   LSORBIT =      F    spin-orbit coupling
   INIWAV =      1    electr: 0-lowe 1-rand  2-diag
   LASPH  =      F    aspherical Exc in radial PAW
   METAGGA=      F    non-selfconsistent MetaGGA calc.

 Electronic Relaxation 1
   ENCUT  =  600.0 eV  44.10 Ry    6.64 a.u.  30.72 30.72 30.72*2*pi/ulx,y,z
   ENINI  =  600.0     initial cutoff
   ENAUG  =  605.4 eV  augmentation charge cutoff
   NELM   =    100;   NELMIN=  2; NELMDL= -5     # of ELM steps 
   EDIFF  = 0.1E-05   stopping-criterion for ELM
   LREAL  =      T    real-space projection
   NLSPLINE    = F    spline interpolate recip. space projectors
   LCOMPAT=      F    compatible to vasp.4.4
   GGA_COMPAT  = T    GGA compatible to vasp.4.4-vasp.4.6
   LMAXPAW     = -100 max onsite density
   LMAXMIX     =    0 max onsite mixed and CHGCAR
   VOSKOWN=      1    Vosko Wilk Nusair interpolation
   ROPT   =   -0.00025  -0.00025
 Ionic relaxation
   EDIFFG = -.2E-01   stopping-criterion for IOM
   NSW    =      0    number of steps for IOM
   NBLOCK =      1;   KBLOCK =      1    inner block; outer block 
   IBRION =     -1    ionic relax: 0-MD 1-quasi-New 2-CG
   NFREE  =      0    steps in history (QN), initial steepest desc. (CG)
   ISIF   =      2    stress and relaxation
   IWAVPR =     10    prediction:  0-non 1-charg 2-wave 3-comb
   ISYM   =      2    0-nonsym 1-usesym 2-fastsym
   LCORR  =      T    Harris-Foulkes like correction to forces

   POTIM  = 0.5000    time-step for ionic-motion
   TEIN   =    0.0    initial temperature
   TEBEG  =    0.0;   TEEND  =   0.0 temperature during run
   SMASS  =  -3.00    Nose mass-parameter (am)
   estimated Nose-frequenzy (Omega)   =  0.10E-29 period in steps =****** mass=  -0.541E-26a.u.
   SCALEE = 1.0000    scale energy and forces
   NPACO  =    256;   APACO  = 16.0  distance and # of slots for P.C.
   PSTRESS=    0.0 pullay stress

  Mass of Ions in am
   POMASS =  16.00238.03
  Ionic Valenz
   ZVAL   =   6.00 14.00
  Atomic Wigner-Seitz radii
   RWIGS  =   0.73  1.42
  virtual crystal weights 
   VCA    =   1.00  1.00
   NELECT =    1664.0000    total number of electrons
   NUPDOWN=      -1.0000    fix difference up-down

 DOS related values:
   EMIN   =  10.00;   EMAX   =-10.00  energy-range for DOS
   EFERMI =   0.00
   ISMEAR =     1;   SIGMA  =   0.20  broadening in eV -4-tet -1-fermi 0-gaus

 Electronic relaxation 2 (details)
   IALGO  =     38    algorithm
   LDIAG  =      T    sub-space diagonalisation (order eigenvalues)
   LSUBROT=      F    optimize rotation matrix (better conditioning)
   TURBO    =      0    0=normal 1=particle mesh
   IRESTART =      0    0=no restart 2=restart with 2 vectors
   NREBOOT  =      0    no. of reboots
   NMIN     =      0    reboot dimension
   EREF     =   0.00    reference energy to select bands
   IMIX   =      4    mixing-type and parameters
     AMIX     =   0.40;   BMIX     =  1.00
     AMIX_MAG =   1.60;   BMIX_MAG =  1.00
     AMIN     =   0.10
     WC   =   100.;   INIMIX=   1;  MIXPRE=   1;  MAXMIX= -45

 Intra band minimization:
   WEIMIN = 0.0000     energy-eigenvalue tresh-hold
   EBREAK =  0.22E-09  absolut break condition
   DEPER  =   0.30     relativ break condition  

   TIME   =   0.40     timestep for ELM

  volume/ion in A,a.u.               =      13.40        90.46
  Fermi-wavevector in a.u.,A,eV,Ry     =   1.415599  2.675095 27.265004  2.003921
  Thomas-Fermi vector in A             =   2.537021
 
 Write flags
   LWAVE        =      T    write WAVECAR
   LDOWNSAMPLE  =      F    k-point downsampling of WAVECAR
   LCHARG       =      F    write CHGCAR
   LVTOT        =      F    write LOCPOT, total local potential
   LVHAR        =      F    write LOCPOT, Hartree potential only
   LELF         =      F    write electronic localiz. function (ELF)
   LORBIT       =      0    0 simple, 1 ext, 2 COOP (PROOUT), +10 PAW based schemes


 Dipole corrections
   LMONO  =      F    monopole corrections only (constant potential shift)
   LDIPOL =      F    correct potential (dipole corrections)
   IDIPOL =      0    1-x, 2-y, 3-z, 4-all directions 
   EPSILON=  1.0000000 bulk dielectric constant

 LDA+U is selected, type is set to LDAUTYPE =  2
   angular momentum for each species LDAUL =    -1    0
   U (eV)           for each species LDAUU =   0.0  4.0
   J (eV)           for each species LDAUJ =   0.0  0.0
 Exchange correlation treatment:
   GGA     =    --    GGA type
   LEXCH   =     2    internal setting for exchange type
   VOSKOWN=      1    Vosko Wilk Nusair interpolation
   LHFCALC =     F    Hartree Fock is set to
   LHFONE  =     F    Hartree Fock one center treatment
   AEXX    =    0.0000 exact exchange contribution

 Linear response parameters
   LEPSILON=     F    determine dielectric tensor
   LRPA    =     F    only Hartree local field effects (RPA)
   LNABLA  =     F    use nabla operator in PAW spheres
   LVEL    =     F    velocity operator in full k-point grid
   LINTERFAST=   F  fast interpolation
   KINTER  =     0    interpolate to denser k-point grid
   CSHIFT  =0.1000    complex shift for real part using Kramers Kronig
   OMEGAMAX=  -1.0    maximum frequency
   DEG_THRESHOLD= 0.2000000E-02 threshold for treating states as degnerate
   RTIME   =   -0.100 relaxation time in fs
  (WPLASMAI=    0.000 imaginary part of plasma frequency in eV, 0.658/RTIME)
   DFIELD  = 0.0000000 0.0000000 0.0000000 field for delta impulse in time
 
 Orbital magnetization related:
   ORBITALMAG=     F  switch on orbital magnetization
   LCHIMAG   =     F  perturbation theory with respect to B field
   DQ        =  0.001000  dq finite difference perturbation B field
   LLRAUG    =     F  two centre corrections for induced B field



--------------------------------------------------------------------------------------------------------


 Static calculation
 charge density and potential will be updated during run
 spin polarized calculation
 Variant of blocked Davidson
 Davidson routine will perform the subspace rotation
 perform sub-space diagonalisation
    after iterative eigenvector-optimisation
 modified Broyden-mixing scheme, WC =      100.0
 initial mixing is a Kerker type mixing with AMIX =  0.4000 and BMIX =      1.0000
 Hartree-type preconditioning will be used
 using additional bands          291
 real space projection scheme for non local part
 use partial core corrections
 calculate Harris-corrections to forces 
   (improved forces if not selfconsistent)
 use of overlap-Matrix (Vanderbilt PP)
 Methfessel and Paxton  Order N= 1 SIGMA  =   0.20


--------------------------------------------------------------------------------------------------------


  energy-cutoff  :      600.00
  volume of cell :     2573.69
      direct lattice vectors                 reciprocal lattice vectors
    15.382394360  0.000000000  0.000000000     0.065009385 -0.037533186 -0.026539970
     7.691197160 13.321544280  0.000000000     0.000000000  0.075066372 -0.026539970
     7.691197160  4.440514760 12.559672400     0.000000000  0.000000000  0.079619911

  length of vectors
    15.382394360 15.382394344 15.382394348     0.079619911  0.079619911  0.079619911


 
 k-points in units of 2pi/SCALE and weight: Automatic mesh                          
   0.00000000  0.00000000  0.00000000       0.016
   0.01625235 -0.00938330 -0.00663499       0.031
   0.03250469 -0.01876659 -0.01326999       0.016
   0.00000000  0.01876659 -0.00663499       0.062
   0.01625235  0.00938330 -0.01326999       0.062
   0.03250469  0.00000000 -0.01990498       0.062
  -0.01625235  0.02814989 -0.00000000       0.062
   0.00000000  0.03753319 -0.01326999       0.031
   0.01625235  0.02814989 -0.01990498       0.062
   0.03250469  0.01876659 -0.02653997       0.031
   0.00000000  0.01876659  0.01326999       0.031
   0.01625235  0.00938330  0.00663499       0.031
   0.03250469  0.00000000  0.00000000       0.031
  -0.01625235  0.02814989  0.01990498       0.031
   0.00000000  0.03753319  0.00663499       0.062
   0.01625235  0.02814989  0.00000000       0.062
   0.03250469  0.01876659 -0.00663499       0.062
  -0.01625235  0.04691648  0.01326999       0.062
   0.00000000 -0.01876659  0.02653997       0.031
   0.01625235 -0.02814989  0.01990498       0.062
   0.03250469 -0.03753319  0.01326999       0.031
   0.00000000  0.03753319  0.02653997       0.016
   0.01625235  0.02814989  0.01990498       0.031
   0.03250469  0.01876659  0.01326999       0.016
 
 k-points in reciprocal lattice and weights: Automatic mesh                          
   0.00000000  0.00000000  0.00000000       0.016
   0.25000000  0.00000000  0.00000000       0.031
   0.50000000  0.00000000  0.00000000       0.016
   0.00000000  0.25000000  0.00000000       0.062
   0.25000000  0.25000000  0.00000000       0.062
   0.50000000  0.25000000  0.00000000       0.062
  -0.25000000  0.25000000 -0.00000000       0.062
   0.00000000  0.50000000  0.00000000       0.031
   0.25000000  0.50000000  0.00000000       0.062
   0.50000000  0.50000000  0.00000000       0.031
   0.00000000  0.25000000  0.25000000       0.031
   0.25000000  0.25000000  0.25000000       0.031
   0.50000000  0.25000000  0.25000000       0.031
  -0.25000000  0.25000000  0.25000000       0.031
   0.00000000  0.50000000  0.25000000       0.062
   0.25000000  0.50000000  0.25000000       0.062
   0.50000000  0.50000000  0.25000000       0.062
  -0.25000000  0.50000000  0.25000000       0.062
   0.00000000 -0.25000000  0.25000000       0.031
   0.25000000 -0.25000000  0.25000000       0.062
   0.50000000 -0.25000000  0.25000000       0.031
   0.00000000  0.50000000  0.50000000       0.016
   0.25000000  0.50000000  0.50000000       0.031
   0.50000000  0.50000000  0.50000000       0.016
 
 position of ions in fractional coordinates (direct lattice) 
   0.06250000  0.06250000  0.06250000
   0.31250000  0.06250000  0.06250000
   0.56250000  0.06250000  0.06250000
   0.81250000  0.06250000  0.06250000
   0.06250000  0.31250000  0.06250000
   0.31250000  0.31250000  0.06250000
   0.56250000  0.31250000  0.06250000
   0.81250000  0.31250000  0.06250000
   0.06250000  0.56250000  0.06250000
   0.31250000  0.56250000  0.06250000
   0.56250000  0.56250000  0.06250000
   0.81250000  0.56250000  0.06250000
   0.06250000  0.81250000  0.06250000
   0.31250000  0.81250000  0.06250000
   0.56250000  0.81250000  0.06250000
   0.81250000  0.81250000  0.06250000
   0.06250000  0.06250000  0.31250000
   0.31250000  0.06250000  0.31250000
   0.56250000  0.06250000  0.31250000
   0.81250000  0.06250000  0.31250000
   0.06250000  0.31250000  0.31250000
   0.31250000  0.31250000  0.31250000
   0.56250000  0.31250000  0.31250000
   0.81250000  0.31250000  0.31250000
   0.06250000  0.56250000  0.31250000
   0.31250000  0.56250000  0.31250000
   0.56250000  0.56250000  0.31250000
   0.81250000  0.56250000  0.31250000
   0.06250000  0.81250000  0.31250000
   0.31250000  0.81250000  0.31250000
   0.56250000  0.81250000  0.31250000
   0.81250000  0.81250000  0.31250000
   0.06250000  0.06250000  0.56250000
   0.31250000  0.06250000  0.56250000
   0.56250000  0.06250000  0.56250000
   0.81250000  0.06250000  0.56250000
   0.06250000  0.31250000  0.56250000
   0.31250000  0.31250000  0.56250000
   0.56250000  0.31250000  0.56250000
   0.81250000  0.31250000  0.56250000
   0.06250000  0.56250000  0.56250000
   0.31250000  0.56250000  0.56250000
   0.56250000  0.56250000  0.56250000
   0.81250000  0.56250000  0.56250000
   0.06250000  0.81250000  0.56250000
   0.31250000  0.81250000  0.56250000
   0.56250000  0.81250000  0.56250000
   0.81250000  0.81250000  0.56250000
   0.06250000  0.06250000  0.81250000
   0.31250000  0.06250000  0.81250000
   0.56250000  0.06250000  0.81250000
   0.81250000  0.06250000  0.81250000
   0.06250000  0.31250000  0.81250000
   0.31250000  0.31250000  0.81250000
   0.56250000  0.31250000  0.81250000
   0.81250000  0.31250000  0.81250000
   0.06250000  0.56250000  0.81250000
   0.31250000  0.56250000  0.81250000
   0.56250000  0.56250000  0.81250000
   0.81250000  0.56250000  0.81250000
   0.06250000  0.81250000  0.81250000
   0.31250000  0.81250000  0.81250000
   0.56250000  0.81250000  0.81250000
   0.81250000  0.81250000  0.81250000
   0.18750000  0.18750000  0.18750000
   0.43750000  0.18750000  0.18750000
   0.68750000  0.18750000  0.18750000
   0.93750000  0.18750000  0.18750000
   0.18750000  0.43750000  0.18750000
   0.43750000  0.43750000  0.18750000
   0.68750000  0.43750000  0.18750000
   0.93750000  0.43750000  0.18750000
   0.18750000  0.68750000  0.18750000
   0.43750000  0.68750000  0.18750000
   0.68750000  0.68750000  0.18750000
   0.93750000  0.68750000  0.18750000
   0.18750000  0.93750000  0.18750000
   0.43750000  0.93750000  0.18750000
   0.68750000  0.93750000  0.18750000
   0.93750000  0.93750000  0.18750000
   0.18750000  0.18750000  0.43750000
   0.43750000  0.18750000  0.43750000
   0.68750000  0.18750000  0.43750000
   0.93750000  0.18750000  0.43750000
   0.18750000  0.43750000  0.43750000
   0.43750000  0.43750000  0.43750000
   0.68750000  0.43750000  0.43750000
   0.93750000  0.43750000  0.43750000
   0.18750000  0.68750000  0.43750000
   0.43750000  0.68750000  0.43750000
   0.68750000  0.68750000  0.43750000
   0.93750000  0.68750000  0.43750000
   0.18750000  0.93750000  0.43750000
   0.43750000  0.93750000  0.43750000
   0.68750000  0.93750000  0.43750000
   0.93750000  0.93750000  0.43750000
   0.18750000  0.18750000  0.68750000
   0.43750000  0.18750000  0.68750000
   0.68750000  0.18750000  0.68750000
   0.93750000  0.18750000  0.68750000
   0.18750000  0.43750000  0.68750000
   0.43750000  0.43750000  0.68750000
   0.68750000  0.43750000  0.68750000
   0.93750000  0.43750000  0.68750000
   0.18750000  0.68750000  0.68750000
   0.43750000  0.68750000  0.68750000
   0.68750000  0.68750000  0.68750000
   0.93750000  0.68750000  0.68750000
   0.18750000  0.93750000  0.68750000
   0.43750000  0.93750000  0.68750000
   0.68750000  0.93750000  0.68750000
   0.93750000  0.93750000  0.68750000
   0.18750000  0.18750000  0.93750000
   0.43750000  0.18750000  0.93750000
   0.68750000  0.18750000  0.93750000
   0.93750000  0.18750000  0.93750000
   0.18750000  0.43750000  0.93750000
   0.43750000  0.43750000  0.93750000
   0.68750000  0.43750000  0.93750000
   0.93750000  0.43750000  0.93750000
   0.18750000  0.68750000  0.93750000
   0.43750000  0.68750000  0.93750000
   0.68750000  0.68750000  0.93750000
   0.93750000  0.68750000  0.93750000
   0.18750000  0.93750000  0.93750000
   0.43750000  0.93750000  0.93750000
   0.68750000  0.93750000  0.93750000
   0.93750000  0.93750000  0.93750000
   0.00065009  0.00000000  0.00000000
   0.25000000  0.00000000  0.00000000
   0.50000000  0.00000000  0.00000000
   0.75000000  0.00000000  0.00000000
   0.00000000  0.25000000  0.00000000
   0.25000000  0.25000000  0.00000000
   0.50000000  0.25000000  0.00000000
   0.75000000  0.25000000  0.00000000
   0.00000000  0.50000000  0.00000000
   0.25000000  0.50000000  0.00000000
   0.50000000  0.50000000  0.00000000
   0.75000000  0.50000000  0.00000000
   0.00000000  0.75000000  0.00000000
   0.25000000  0.75000000  0.00000000
   0.50000000  0.75000000  0.00000000
   0.75000000  0.75000000  0.00000000
   0.00000000  0.00000000  0.25000000
   0.25000000  0.00000000  0.25000000
   0.50000000  0.00000000  0.25000000
   0.75000000  0.00000000  0.25000000
   0.00000000  0.25000000  0.25000000
   0.25000000  0.25000000  0.25000000
   0.50000000  0.25000000  0.25000000
   0.75000000  0.25000000  0.25000000
   0.00000000  0.50000000  0.25000000
   0.25000000  0.50000000  0.25000000
   0.50000000  0.50000000  0.25000000
   0.75000000  0.50000000  0.25000000
   0.00000000  0.75000000  0.25000000
   0.25000000  0.75000000  0.25000000
   0.50000000  0.75000000  0.25000000
   0.75000000  0.75000000  0.25000000
   0.00000000  0.00000000  0.50000000
   0.25000000  0.00000000  0.50000000
   0.50000000  0.00000000  0.50000000
   0.75000000  0.00000000  0.50000000
   0.00000000  0.25000000  0.50000000
   0.25000000  0.25000000  0.50000000
   0.50000000  0.25000000  0.50000000
   0.75000000  0.25000000  0.50000000
   0.00000000  0.50000000  0.50000000
   0.25000000  0.50000000  0.50000000
   0.50000000  0.50000000  0.50000000
   0.75000000  0.50000000  0.50000000
   0.00000000  0.75000000  0.50000000
   0.25000000  0.75000000  0.50000000
   0.50000000  0.75000000  0.50000000
   0.75000000  0.75000000  0.50000000
   0.00000000  0.00000000  0.75000000
   0.25000000  0.00000000  0.75000000
   0.50000000  0.00000000  0.75000000
   0.75000000  0.00000000  0.75000000
   0.00000000  0.25000000  0.75000000
   0.25000000  0.25000000  0.75000000
   0.50000000  0.25000000  0.75000000
   0.75000000  0.25000000  0.75000000
   0.00000000  0.50000000  0.75000000
   0.25000000  0.50000000  0.75000000
   0.50000000  0.50000000  0.75000000
   0.75000000  0.50000000  0.75000000
   0.00000000  0.75000000  0.75000000
   0.25000000  0.75000000  0.75000000
   0.50000000  0.75000000  0.75000000
   0.75000000  0.75000000  0.75000000
 
 position of ions in cartesian coordinates  (Angst):
   1.92279929  1.11012869  0.78497953
   5.76839788  1.11012869  0.78497953
   9.61399647  1.11012869  0.78497953
  13.45959506  1.11012869  0.78497953
   3.84559858  4.44051476  0.78497953
   7.69119717  4.44051476  0.78497953
  11.53679576  4.44051476  0.78497953
  15.38239435  4.44051476  0.78497953
   5.76839787  7.77090083  0.78497953
   9.61399646  7.77090083  0.78497953
  13.45959505  7.77090083  0.78497953
  17.30519364  7.77090083  0.78497953
   7.69119716 11.10128690  0.78497953
  11.53679575 11.10128690  0.78497953
  15.38239434 11.10128690  0.78497953
  19.22799293 11.10128690  0.78497953
   3.84559858  2.22025738  3.92489762
   7.69119717  2.22025738  3.92489762
  11.53679576  2.22025738  3.92489762
  15.38239435  2.22025738  3.92489762
   5.76839787  5.55064345  3.92489762
   9.61399646  5.55064345  3.92489762
  13.45959505  5.55064345  3.92489762
  17.30519364  5.55064345  3.92489762
   7.69119716  8.88102952  3.92489762
  11.53679575  8.88102952  3.92489762
  15.38239434  8.88102952  3.92489762
  19.22799293  8.88102952  3.92489762
   9.61399645 12.21141559  3.92489762
  13.45959504 12.21141559  3.92489762
  17.30519363 12.21141559  3.92489762
  21.15079222 12.21141559  3.92489762
   5.76839787  3.33038607  7.06481572
   9.61399646  3.33038607  7.06481572
  13.45959505  3.33038607  7.06481572
  17.30519364  3.33038607  7.06481572
   7.69119716  6.66077214  7.06481572
  11.53679575  6.66077214  7.06481572
  15.38239434  6.66077214  7.06481572
  19.22799293  6.66077214  7.06481572
   9.61399645  9.99115821  7.06481572
  13.45959504  9.99115821  7.06481572
  17.30519363  9.99115821  7.06481572
  21.15079222  9.99115821  7.06481572
  11.53679574 13.32154428  7.06481572
  15.38239433 13.32154428  7.06481572
  19.22799292 13.32154428  7.06481572
  23.07359151 13.32154428  7.06481572
   7.69119716  4.44051476 10.20473382
  11.53679575  4.44051476 10.20473382
  15.38239434  4.44051476 10.20473382
  19.22799293  4.44051476 10.20473382
   9.61399645  7.77090083 10.20473382
  13.45959504  7.77090083 10.20473382
  17.30519363  7.77090083 10.20473382
  21.15079222  7.77090083 10.20473382
  11.53679574 11.10128690 10.20473382
  15.38239433 11.10128690 10.20473382
  19.22799292 11.10128690 10.20473382
  23.07359151 11.10128690 10.20473382
  13.45959503 14.43167297 10.20473382
  17.30519362 14.43167297 10.20473382
  21.15079221 14.43167297 10.20473382
  24.99639080 14.43167297 10.20473382
   5.76839788  3.33038607  2.35493858
   9.61399647  3.33038607  2.35493858
  13.45959506  3.33038607  2.35493858
  17.30519365  3.33038607  2.35493858
   7.69119717  6.66077214  2.35493858
  11.53679576  6.66077214  2.35493858
  15.38239435  6.66077214  2.35493858
  19.22799294  6.66077214  2.35493858
   9.61399646  9.99115821  2.35493858
  13.45959505  9.99115821  2.35493858
  17.30519364  9.99115821  2.35493858
  21.15079223  9.99115821  2.35493858
  11.53679575 13.32154428  2.35493858
  15.38239434 13.32154428  2.35493858
  19.22799293 13.32154428  2.35493858
  23.07359152 13.32154428  2.35493858
   7.69119717  4.44051476  5.49485668
  11.53679576  4.44051476  5.49485668
  15.38239435  4.44051476  5.49485668
  19.22799294  4.44051476  5.49485668
   9.61399646  7.77090083  5.49485668
  13.45959505  7.77090083  5.49485668
  17.30519364  7.77090083  5.49485668
  21.15079223  7.77090083  5.49485668
  11.53679575 11.10128690  5.49485668
  15.38239434 11.10128690  5.49485668
  19.22799293 11.10128690  5.49485668
  23.07359152 11.10128690  5.49485668
  13.45959504 14.43167297  5.49485668
  17.30519363 14.43167297  5.49485668
  21.15079222 14.43167297  5.49485668
  24.99639081 14.43167297  5.49485668
   9.61399646  5.55064345  8.63477478
  13.45959505  5.55064345  8.63477478
  17.30519364  5.55064345  8.63477478
  21.15079223  5.55064345  8.63477478
  11.53679575  8.88102952  8.63477478
  15.38239434  8.88102952  8.63477478
  19.22799293  8.88102952  8.63477478
  23.07359152  8.88102952  8.63477478
  13.45959504 12.21141559  8.63477478
  17.30519363 12.21141559  8.63477478
  21.15079222 12.21141559  8.63477478
  24.99639081 12.21141559  8.63477478
  15.38239433 15.54180166  8.63477478
  19.22799292 15.54180166  8.63477478
  23.07359151 15.54180166  8.63477478
  26.91919010 15.54180166  8.63477478
  11.53679575  6.66077214 11.77469287
  15.38239434  6.66077214 11.77469287
  19.22799293  6.66077214 11.77469287
  23.07359152  6.66077214 11.77469287
  13.45959504  9.99115821 11.77469287
  17.30519363  9.99115821 11.77469287
  21.15079222  9.99115821 11.77469287
  24.99639081  9.99115821 11.77469287
  15.38239433 13.32154428 11.77469287
  19.22799292 13.32154428 11.77469287
  23.07359151 13.32154428 11.77469287
  26.91919010 13.32154428 11.77469287
  17.30519362 16.65193035 11.77469287
  21.15079221 16.65193035 11.77469287
  24.99639080 16.65193035 11.77469287
  28.84198939 16.65193035 11.77469287
   0.01000000  0.00000000  0.00000000
   3.84559859  0.00000000  0.00000000
   7.69119718  0.00000000  0.00000000
  11.53679577  0.00000000  0.00000000
   1.92279929  3.33038607  0.00000000
   5.76839788  3.33038607  0.00000000
   9.61399647  3.33038607  0.00000000
  13.45959506  3.33038607  0.00000000
   3.84559858  6.66077214  0.00000000
   7.69119717  6.66077214  0.00000000
  11.53679576  6.66077214  0.00000000
  15.38239435  6.66077214  0.00000000
   5.76839787  9.99115821  0.00000000
   9.61399646  9.99115821  0.00000000
  13.45959505  9.99115821  0.00000000
  17.30519364  9.99115821  0.00000000
   1.92279929  1.11012869  3.13991810
   5.76839788  1.11012869  3.13991810
   9.61399647  1.11012869  3.13991810
  13.45959506  1.11012869  3.13991810
   3.84559858  4.44051476  3.13991810
   7.69119717  4.44051476  3.13991810
  11.53679576  4.44051476  3.13991810
  15.38239435  4.44051476  3.13991810
   5.76839787  7.77090083  3.13991810
   9.61399646  7.77090083  3.13991810
  13.45959505  7.77090083  3.13991810
  17.30519364  7.77090083  3.13991810
   7.69119716 11.10128690  3.13991810
  11.53679575 11.10128690  3.13991810
  15.38239434 11.10128690  3.13991810
  19.22799293 11.10128690  3.13991810
   3.84559858  2.22025738  6.27983620
   7.69119717  2.22025738  6.27983620
  11.53679576  2.22025738  6.27983620
  15.38239435  2.22025738  6.27983620
   5.76839787  5.55064345  6.27983620
   9.61399646  5.55064345  6.27983620
  13.45959505  5.55064345  6.27983620
  17.30519364  5.55064345  6.27983620
   7.69119716  8.88102952  6.27983620
  11.53679575  8.88102952  6.27983620
  15.38239434  8.88102952  6.27983620
  19.22799293  8.88102952  6.27983620
   9.61399645 12.21141559  6.27983620
  13.45959504 12.21141559  6.27983620
  17.30519363 12.21141559  6.27983620
  21.15079222 12.21141559  6.27983620
   5.76839787  3.33038607  9.41975430
   9.61399646  3.33038607  9.41975430
  13.45959505  3.33038607  9.41975430
  17.30519364  3.33038607  9.41975430
   7.69119716  6.66077214  9.41975430
  11.53679575  6.66077214  9.41975430
  15.38239434  6.66077214  9.41975430
  19.22799293  6.66077214  9.41975430
   9.61399645  9.99115821  9.41975430
  13.45959504  9.99115821  9.41975430
  17.30519363  9.99115821  9.41975430
  21.15079222  9.99115821  9.41975430
  11.53679574 13.32154428  9.41975430
  15.38239433 13.32154428  9.41975430
  19.22799292 13.32154428  9.41975430
  23.07359151 13.32154428  9.41975430
 


--------------------------------------------------------------------------------------------------------


 k-point  1 :   0.0000 0.0000 0.0000  plane waves:   85851
 k-point  2 :   0.2500 0.0000 0.0000  plane waves:   85910
 k-point  3 :   0.5000 0.0000 0.0000  plane waves:   85940
 k-point  4 :   0.0000 0.2500 0.0000  plane waves:   85910
 k-point  5 :   0.2500 0.2500 0.0000  plane waves:   85867
 k-point  6 :   0.5000 0.2500 0.0000  plane waves:   85897
 k-point  7 :  -0.2500 0.2500-0.0000  plane waves:   85891
 k-point  8 :   0.0000 0.5000 0.0000  plane waves:   85940
 k-point  9 :   0.2500 0.5000 0.0000  plane waves:   85897
 k-point 10 :   0.5000 0.5000 0.0000  plane waves:   85896
 k-point 11 :   0.0000 0.2500 0.2500  plane waves:   85867
 k-point 12 :   0.2500 0.2500 0.2500  plane waves:   85910
 k-point 13 :   0.5000 0.2500 0.2500  plane waves:   85891
 k-point 14 :  -0.2500 0.2500 0.2500  plane waves:   85897
 k-point 15 :   0.0000 0.5000 0.2500  plane waves:   85897
 k-point 16 :   0.2500 0.5000 0.2500  plane waves:   85891
 k-point 17 :   0.5000 0.5000 0.2500  plane waves:   85897
 k-point 18 :  -0.2500 0.5000 0.2500  plane waves:   85900
 k-point 19 :   0.0000-0.2500 0.2500  plane waves:   85891
 k-point 20 :   0.2500-0.2500 0.2500  plane waves:   85897
 k-point 21 :   0.5000-0.2500 0.2500  plane waves:   85900
 k-point 22 :   0.0000 0.5000 0.5000  plane waves:   85896
 k-point 23 :   0.2500 0.5000 0.5000  plane waves:   85897
 k-point 24 :   0.5000 0.5000 0.5000  plane waves:   85940

 maximum and minimum number of plane-waves per node :      2725     2645

 maximum number of plane-waves:     85940
 maximum index in each direction: 
   IXMAX=   30   IYMAX=   30   IZMAX=   30
   IXMIN=  -31   IYMIN=  -31   IZMIN=  -31


 real space projection operators:
  total allocation   :     249373.25 KBytes
  max/ min on nodes  :      11177.50       2244.00


 parallel 3D FFT for wavefunctions:
    minimum data exchange during FFTs selected (reduces bandwidth)
 parallel 3D FFT for charge:
    minimum data exchange during FFTs selected (reduces bandwidth)


 total amount of memory used by VASP MPI-rank0  2614139. kBytes
=======================================================================

   base      :      30000. kBytes
   nonlr-proj:      58075. kBytes
   fftplans  :      75791. kBytes
   grid      :      45997. kBytes
   one-center:        589. kBytes
   wavefun   :    2403687. kBytes
 
     INWAV:  cpu time    0.0000: real time    0.0002
 Broyden mixing: mesh for mixing (old mesh)
   NGX = 61   NGY = 61   NGZ = 61
  (NGX  =252   NGY  =252   NGZ  =252)
  gives a total of 226981 points

 initial charge density was supplied:
 charge density of overlapping atoms calculated
 number of electron    1664.0000000 magnetization     249.8560000
 keeping initial charge density in first step


--------------------------------------------------------------------------------------------------------


 Maximum index for non-local projection operator          622
 Maximum index for augmentation-charges        13216 (set IRDMAX)


--------------------------------------------------------------------------------------------------------


 First call to EWALD:  gamma=   0.129
 Maximum number of real-space cells 3x 3x 3
 Maximum number of reciprocal cells 3x 3x 3

    FEWALD:  cpu time    0.0160: real time    0.0177


--------------------------------------- Iteration      1(   1)  ---------------------------------------


    POTLOK:  cpu time    0.3200: real time    0.3233
    SETDIJ:  cpu time    3.0320: real time    3.0369
     EDDAV:  cpu time 1827.9640: real time 1831.2040
       DOS:  cpu time    0.1680: real time    0.1654
    --------------------------------------------
      LOOP:  cpu time 1831.4840: real time 1834.7295

 eigenvalue-minimisations  :107808
 total energy-change (2. order) : 0.2562947E+05  (-0.7549889E+05)
 number of electron    1664.0000000 magnetization     249.8560000
 augmentation part     1664.0000000 magnetization     249.8560000

 Free energy of the ion-electron system (eV)
  ---------------------------------------------------
  alpha Z        PSCENC =      9858.96941913
  Ewald energy   TEWEN  =   -133586.82712532
  -Hartree energ DENC   =    -22558.92501454
  -exchange      EXHF   =         0.00000000
  -V(xc)+E(xc)   XCENC  =      5951.13798499
  PAW double counting   =    117349.60863424  -116097.10627122
  entropy T*S    EENTRO =        -0.00637349
  eigenvalues    EBANDS =     19275.24973997
  atomic energy  EATOM  =    145437.36496220
  Solvation  Ediel_sol  =         0.00000000
  ---------------------------------------------------
  free energy    TOTEN  =     25629.46595595 eV

  energy without entropy =    25629.47232944  energy(sigma->0) =    25629.46808045


--------------------------------------------------------------------------------------------------------




--------------------------------------- Iteration      1(   2)  ---------------------------------------


     EDDAV:  cpu time 1821.2880: real time 1824.4113
       DOS:  cpu time    0.2000: real time    0.2000
    --------------------------------------------
      LOOP:  cpu time 1821.4880: real time 1824.6113

 eigenvalue-minimisations  :107816
 total energy-change (2. order) :-0.1994181E+05  (-0.1790625E+05)
 number of electron    1664.0000000 magnetization     249.8560000
 augmentation part     1664.0000000 magnetization     249.8560000

 Free energy of the ion-electron system (eV)
  ---------------------------------------------------
  alpha Z        PSCENC =      9858.96941913
  Ewald energy   TEWEN  =   -133586.82712532
  -Hartree energ DENC   =    -22558.92501454
  -exchange      EXHF   =         0.00000000
  -V(xc)+E(xc)   XCENC  =      5951.13798499
  PAW double counting   =    117349.60863424  -116097.10627122
  entropy T*S    EENTRO =        -0.00656726
  eigenvalues    EBANDS =      -666.55662702
  atomic energy  EATOM  =    145437.36496220
  Solvation  Ediel_sol  =         0.00000000
  ---------------------------------------------------
  free energy    TOTEN  =      5687.65939519 eV

  energy without entropy =     5687.66596245  energy(sigma->0) =     5687.66158427


--------------------------------------------------------------------------------------------------------




--------------------------------------- Iteration      1(   3)  ---------------------------------------


     EDDAV:  cpu time 1963.3640: real time 1966.6579
       DOS:  cpu time    0.2400: real time    0.2396
    --------------------------------------------
      LOOP:  cpu time 1963.6040: real time 1966.8974

 eigenvalue-minimisations  :118711
 total energy-change (2. order) :-0.5979594E+04  (-0.5168354E+04)
 number of electron    1664.0000000 magnetization     249.8560000
 augmentation part     1664.0000000 magnetization     249.8560000

 Free energy of the ion-electron system (eV)
  ---------------------------------------------------
  alpha Z        PSCENC =      9858.96941913
  Ewald energy   TEWEN  =   -133586.82712532
  -Hartree energ DENC   =    -22558.92501454
  -exchange      EXHF   =         0.00000000
  -V(xc)+E(xc)   XCENC  =      5951.13798499
  PAW double counting   =    117349.60863424  -116097.10627122
  entropy T*S    EENTRO =         0.27869552
  eigenvalues    EBANDS =     -6646.43633671
  atomic energy  EATOM  =    145437.36496220
  Solvation  Ediel_sol  =         0.00000000
  ---------------------------------------------------
  free energy    TOTEN  =      -291.93505172 eV

  energy without entropy =     -292.21374724  energy(sigma->0) =     -292.02795023


--------------------------------------------------------------------------------------------------------




--------------------------------------- Iteration      1(   4)  ---------------------------------------


     EDDAV:  cpu time 2129.4360: real time 2132.2369
       DOS:  cpu time    0.2520: real time    0.2507
    --------------------------------------------
      LOOP:  cpu time 2129.6880: real time 2132.4876

 eigenvalue-minimisations  :131368
 total energy-change (2. order) :-0.1739107E+04  (-0.1619053E+04)
 number of electron    1664.0000000 magnetization     249.8560000
 augmentation part     1664.0000000 magnetization     249.8560000

 Free energy of the ion-electron system (eV)
  ---------------------------------------------------
  alpha Z        PSCENC =      9858.96941913
  Ewald energy   TEWEN  =   -133586.82712532
  -Hartree energ DENC   =    -22558.92501454
  -exchange      EXHF   =         0.00000000
  -V(xc)+E(xc)   XCENC  =      5951.13798499
  PAW double counting   =    117349.60863424  -116097.10627122
  entropy T*S    EENTRO =        -0.16340939
  eigenvalues    EBANDS =     -8385.10157669
  atomic energy  EATOM  =    145437.36496220
  Solvation  Ediel_sol  =         0.00000000
  ---------------------------------------------------
  free energy    TOTEN  =     -2031.04239662 eV

  energy without entropy =    -2030.87898722  energy(sigma->0) =    -2030.98792682


--------------------------------------------------------------------------------------------------------




--------------------------------------- Iteration      1(   5)  ---------------------------------------


     EDDAV:  cpu time 2939.1640: real time 2944.0668
       DOS:  cpu time    0.2440: real time    0.2445
    CHARGE:  cpu time   60.0360: real time   60.1367
    MIXING:  cpu time    0.0240: real time    0.0246
    --------------------------------------------
      LOOP:  cpu time 2999.4680: real time 3004.4725

 eigenvalue-minimisations  :193256
 total energy-change (2. order) :-0.1865052E+03  (-0.1808010E+03)
 number of electron    1664.0000012 magnetization     211.3896513
 augmentation part       65.4448910 magnetization     173.3981319

 Broyden mixing:
  rms(total) = 0.13943E+02    rms(broyden)= 0.13942E+02
  rms(prec ) = 0.15052E+02
  weight for this iteration     100.00

 Free energy of the ion-electron system (eV)
  ---------------------------------------------------
  alpha Z        PSCENC =      9858.96941913
  Ewald energy   TEWEN  =   -133586.82712532
  -Hartree energ DENC   =    -22558.92501454
  -exchange      EXHF   =         0.00000000
  -V(xc)+E(xc)   XCENC  =      5951.13798499
  PAW double counting   =    117349.60863424  -116097.10627122
  entropy T*S    EENTRO =        -0.11165010
  eigenvalues    EBANDS =     -8571.65853462
  atomic energy  EATOM  =    145437.36496220
  Solvation  Ediel_sol  =         0.00000000
  ---------------------------------------------------
  free energy    TOTEN  =     -2217.54759525 eV

  energy without entropy =    -2217.43594515  energy(sigma->0) =    -2217.51037855


--------------------------------------------------------------------------------------------------------




--------------------------------------- Iteration      1(   6)  ---------------------------------------


    POTLOK:  cpu time    0.3080: real time    0.3116
    SETDIJ:  cpu time    3.0360: real time    3.0403
     EDDAV:  cpu time 2713.1360: real time 2716.3454
       DOS:  cpu time    0.2320: real time    0.2288
    CHARGE:  cpu time   60.8400: real time   60.9557
    MIXING:  cpu time    0.0280: real time    0.0266
    --------------------------------------------
      LOOP:  cpu time 2777.5800: real time 2780.9083

 eigenvalue-minimisations  :176104
 total energy-change (2. order) : 0.1614556E+02  (-0.1707638E+03)
 number of electron    1664.0000009 magnetization     190.5711067
 augmentation part       52.7130355 magnetization     155.4708302

 Broyden mixing:
  rms(total) = 0.63685E+01    rms(broyden)= 0.63665E+01
  rms(prec ) = 0.71166E+01
  weight for this iteration     100.00

 eigenvalues of (default mixing * dielectric matrix)
  average eigenvalue GAMMA=   0.8387
  0.8387

 Free energy of the ion-electron system (eV)
  ---------------------------------------------------
  alpha Z        PSCENC =      9858.96941913
  Ewald energy   TEWEN  =   -133586.82712532
  -Hartree energ DENC   =    -24204.61556513
  -exchange      EXHF   =         0.00000000
  -V(xc)+E(xc)   XCENC  =      6087.45114915
  PAW double counting   =    135364.55495090  -134370.18487744
  entropy T*S    EENTRO =        -0.79424770
  eigenvalues    EBANDS =     -6787.32070396
  atomic energy  EATOM  =    145437.36496220
  Solvation  Ediel_sol  =         0.00000000
  ---------------------------------------------------
  free energy    TOTEN  =     -2201.40203816 eV

  energy without entropy =    -2200.60779046  energy(sigma->0) =    -2201.13728893


--------------------------------------------------------------------------------------------------------




--------------------------------------- Iteration      1(   7)  ---------------------------------------


    POTLOK:  cpu time    0.3080: real time    0.3118
    SETDIJ:  cpu time    3.0480: real time    3.0490
     EDDAV:  cpu time 2865.6760: real time 2866.2355
       DOS:  cpu time    0.2240: real time    0.2235
    CHARGE:  cpu time   60.5280: real time   60.5278
    MIXING:  cpu time    0.0280: real time    0.0264
    --------------------------------------------
      LOOP:  cpu time 2929.8120: real time 2930.3740

 eigenvalue-minimisations  :187624
 total energy-change (2. order) :-0.1174560E+01  (-0.4125484E+02)
 number of electron    1664.0000009 magnetization     185.5240355
 augmentation part       36.8911032 magnetization     142.7623911

 Broyden mixing:
  rms(total) = 0.78214E+01    rms(broyden)= 0.78213E+01
  rms(prec ) = 0.96956E+01
  weight for this iteration     100.00

 eigenvalues of (default mixing * dielectric matrix)
  average eigenvalue GAMMA=   0.5141
  0.8522  0.1760

 Free energy of the ion-electron system (eV)
  ---------------------------------------------------
  alpha Z        PSCENC =      9858.96941913
  Ewald energy   TEWEN  =   -133586.82712532
  -Hartree energ DENC   =    -24293.47654710
  -exchange      EXHF   =         0.00000000
  -V(xc)+E(xc)   XCENC  =      6064.82620045
  PAW double counting   =    146677.77362563  -145657.07732893
  entropy T*S    EENTRO =        -0.34651285
  eigenvalues    EBANDS =     -6703.78329138
  atomic energy  EATOM  =    145437.36496220
  Solvation  Ediel_sol  =         0.00000000
  ---------------------------------------------------
  free energy    TOTEN  =     -2202.57659817 eV

  energy without entropy =    -2202.23008532  energy(sigma->0) =    -2202.46109388


--------------------------------------------------------------------------------------------------------




--------------------------------------- Iteration      1(   8)  ---------------------------------------


    POTLOK:  cpu time    0.3080: real time    0.3115
    SETDIJ:  cpu time    3.0520: real time    3.0512
     EDDAV:  cpu time 2941.3920: real time 2941.7447
       DOS:  cpu time    0.2400: real time    0.2389
    CHARGE:  cpu time   60.5920: real time   60.5880
    MIXING:  cpu time    0.0280: real time    0.0273
    --------------------------------------------
      LOOP:  cpu time 3005.6120: real time 3005.9617

 eigenvalue-minimisations  :193272
 total energy-change (2. order) :-0.2398031E+02  (-0.1534949E+02)
 number of electron    1664.0000009 magnetization     171.6452908
 augmentation part       36.6091736 magnetization     129.5567498

 Broyden mixing:
  rms(total) = 0.11336E+02    rms(broyden)= 0.11336E+02
  rms(prec ) = 0.14595E+02
  weight for this iteration     100.00

 eigenvalues of (default mixing * dielectric matrix)
  average eigenvalue GAMMA=   0.5157
  0.9233  0.5367  0.0870

 Free energy of the ion-electron system (eV)
  ---------------------------------------------------
  alpha Z        PSCENC =      9858.96941913
  Ewald energy   TEWEN  =   -133586.82712532
  -Hartree energ DENC   =    -24347.63957642
  -exchange      EXHF   =         0.00000000
  -V(xc)+E(xc)   XCENC  =      6066.52035615
  PAW double counting   =    149337.76621948  -148320.00927323
  entropy T*S    EENTRO =        -0.06485948
  eigenvalues    EBANDS =     -6672.63703003
  atomic energy  EATOM  =    145437.36496220
  Solvation  Ediel_sol  =         0.00000000
  ---------------------------------------------------
  free energy    TOTEN  =     -2226.55690751 eV

  energy without entropy =    -2226.49204803  energy(sigma->0) =    -2226.53528768


--------------------------------------------------------------------------------------------------------




--------------------------------------- Iteration      1(   9)  ---------------------------------------


    POTLOK:  cpu time    0.3080: real time    0.3131
    SETDIJ:  cpu time    3.0480: real time    3.0515
     EDDAV:  cpu time 2830.8680: real time 2831.3135
       DOS:  cpu time    0.2240: real time    0.2261
    CHARGE:  cpu time   60.6240: real time   60.6200
    MIXING:  cpu time    0.0280: real time    0.0267
    --------------------------------------------
      LOOP:  cpu time 2895.1000: real time 2895.5509

 eigenvalue-minimisations  :184872
 total energy-change (2. order) :-0.2703914E+02  (-0.1119662E+02)
 number of electron    1664.0000009 magnetization     162.3410058
 augmentation part       36.2677251 magnetization     120.3443089

 Broyden mixing:
  rms(total) = 0.12879E+02    rms(broyden)= 0.12879E+02
  rms(prec ) = 0.16507E+02
  weight for this iteration     100.00

 eigenvalues of (default mixing * dielectric matrix)
  average eigenvalue GAMMA=   0.4943
  1.0843  0.6872  0.1308  0.0751

 Free energy of the ion-electron system (eV)
  ---------------------------------------------------
  alpha Z        PSCENC =      9858.96941913
  Ewald energy   TEWEN  =   -133586.82712532
  -Hartree energ DENC   =    -24522.27639671
  -exchange      EXHF   =         0.00000000
  -V(xc)+E(xc)   XCENC  =      6073.82096799
  PAW double counting   =    156764.98703282  -155750.91848321
  entropy T*S    EENTRO =         0.17646350
  eigenvalues    EBANDS =     -6528.89288805
  atomic energy  EATOM  =    145437.36496220
  Solvation  Ediel_sol  =         0.00000000
  ---------------------------------------------------
  free energy    TOTEN  =     -2253.59604765 eV

  energy without entropy =    -2253.77251115  energy(sigma->0) =    -2253.65486881


--------------------------------------------------------------------------------------------------------




--------------------------------------- Iteration      1(  10)  ---------------------------------------


    POTLOK:  cpu time    0.3080: real time    0.3126
    SETDIJ:  cpu time    3.0600: real time    3.0615
     EDDAV:  cpu time 2867.5560: real time 2868.0154
       DOS:  cpu time    0.2320: real time    0.2323
    CHARGE:  cpu time   60.9280: real time   60.9304
    MIXING:  cpu time    0.0280: real time    0.0269
    --------------------------------------------
      LOOP:  cpu time 2932.1120: real time 2932.5792

 eigenvalue-minimisations  :187536
 total energy-change (2. order) : 0.1538235E+02  (-0.6495185E+01)
 number of electron    1664.0000008 magnetization     155.5321766
 augmentation part       34.3797100 magnetization     116.1906327

 Broyden mixing:
  rms(total) = 0.11783E+02    rms(broyden)= 0.11783E+02
  rms(prec ) = 0.15543E+02
  weight for this iteration     100.00

 eigenvalues of (default mixing * dielectric matrix)
  average eigenvalue GAMMA=   0.4695
  1.2648  0.7456  0.1761  0.0804  0.0804

 Free energy of the ion-electron system (eV)
  ---------------------------------------------------
  alpha Z        PSCENC =      9858.96941913
  Ewald energy   TEWEN  =   -133586.82712532
  -Hartree energ DENC   =    -24639.37410087
  -exchange      EXHF   =         0.00000000
  -V(xc)+E(xc)   XCENC  =      6078.50781680
  PAW double counting   =    161825.80166580  -160810.82919640
  entropy T*S    EENTRO =        -0.18573086
  eigenvalues    EBANDS =     -6401.64141221
  atomic energy  EATOM  =    145437.36496220
  Solvation  Ediel_sol  =         0.00000000
  ---------------------------------------------------
  free energy    TOTEN  =     -2238.21370173 eV

  energy without entropy =    -2238.02797087  energy(sigma->0) =    -2238.15179145


--------------------------------------------------------------------------------------------------------




--------------------------------------- Iteration      1(  11)  ---------------------------------------


    POTLOK:  cpu time    0.3080: real time    0.3114
    SETDIJ:  cpu time    3.0560: real time    3.0590
     EDDAV:  cpu time 2873.3360: real time 2877.2921
       DOS:  cpu time    0.2440: real time    0.2409
    CHARGE:  cpu time   61.5320: real time   61.6067
    MIXING:  cpu time    0.0280: real time    0.0266
    --------------------------------------------
      LOOP:  cpu time 2938.5040: real time 2942.5366

 eigenvalue-minimisations  :188192
 total energy-change (2. order) : 0.2666407E+02  (-0.6269112E+01)
 number of electron    1664.0000008 magnetization     152.9590425
 augmentation part       32.5595820 magnetization     109.9723109

 Broyden mixing:
  rms(total) = 0.78317E+01    rms(broyden)= 0.78314E+01
  rms(prec ) = 0.10280E+02
  weight for this iteration     100.00

 eigenvalues of (default mixing * dielectric matrix)
  average eigenvalue GAMMA=   0.4266
  1.3376  0.7593  0.1644  0.1644  0.0671  0.0671

 Free energy of the ion-electron system (eV)
  ---------------------------------------------------
  alpha Z        PSCENC =      9858.96941913
  Ewald energy   TEWEN  =   -133586.82712532
  -Hartree energ DENC   =    -24712.29976328
  -exchange      EXHF   =         0.00000000
  -V(xc)+E(xc)   XCENC  =      6080.54783588
  PAW double counting   =    165267.39486064  -164249.72830520
  entropy T*S    EENTRO =        -0.15258648
  eigenvalues    EBANDS =     -6306.81892754
  atomic energy  EATOM  =    145437.36496220
  Solvation  Ediel_sol  =         0.00000000
  ---------------------------------------------------
  free energy    TOTEN  =     -2211.54962996 eV

  energy without entropy =    -2211.39704348  energy(sigma->0) =    -2211.49876780


--------------------------------------------------------------------------------------------------------




--------------------------------------- Iteration      1(  12)  ---------------------------------------


    POTLOK:  cpu time    0.3040: real time    0.3131
    SETDIJ:  cpu time    3.0600: real time    3.0653
     EDDAV:  cpu time 2914.8080: real time 2919.6232
       DOS:  cpu time    0.2360: real time    0.2372
    CHARGE:  cpu time   61.5680: real time   61.6437
    MIXING:  cpu time    0.0320: real time    0.0299
    --------------------------------------------
      LOOP:  cpu time 2980.0080: real time 2984.9125

 eigenvalue-minimisations  :191352
 total energy-change (2. order) : 0.2079511E+01  (-0.3256056E+01)
 number of electron    1664.0000008 magnetization     146.9092151
 augmentation part       31.5685009 magnetization     103.4816131

 Broyden mixing:
  rms(total) = 0.82880E+01    rms(broyden)= 0.82877E+01
  rms(prec ) = 0.10505E+02
  weight for this iteration     100.00

 eigenvalues of (default mixing * dielectric matrix)
  average eigenvalue GAMMA=   0.4677
  1.6333  0.8141  0.3863  0.2399  0.0684  0.0684  0.0634

 Free energy of the ion-electron system (eV)
  ---------------------------------------------------
  alpha Z        PSCENC =      9858.96941913
  Ewald energy   TEWEN  =   -133586.82712532
  -Hartree energ DENC   =    -24728.25449923
  -exchange      EXHF   =         0.00000000
  -V(xc)+E(xc)   XCENC  =      6080.96716315
  PAW double counting   =    166537.21451927  -165516.94505677
  entropy T*S    EENTRO =        -0.07554863
  eigenvalues    EBANDS =     -6291.88395317
  atomic energy  EATOM  =    145437.36496220
  Solvation  Ediel_sol  =         0.00000000
  ---------------------------------------------------
  free energy    TOTEN  =     -2209.47011935 eV

  energy without entropy =    -2209.39457072  energy(sigma->0) =    -2209.44493648


--------------------------------------------------------------------------------------------------------




--------------------------------------- Iteration      1(  13)  ---------------------------------------


    POTLOK:  cpu time    0.3080: real time    0.3121
    SETDIJ:  cpu time    3.0520: real time    3.0576
     EDDAV:  cpu time 2801.6840: real time 2806.2295
       DOS:  cpu time    0.2440: real time    0.2437
    CHARGE:  cpu time   61.0400: real time   61.1201
    MIXING:  cpu time    0.0280: real time    0.0292
    --------------------------------------------
      LOOP:  cpu time 2866.3560: real time 2870.9922

 eigenvalue-minimisations  :183232
 total energy-change (2. order) :-0.6937794E+01  (-0.4546028E+01)
 number of electron    1664.0000008 magnetization     139.6331021
 augmentation part       31.9631402 magnetization      97.3404319

 Broyden mixing:
  rms(total) = 0.98787E+01    rms(broyden)= 0.98785E+01
  rms(prec ) = 0.12956E+02
  weight for this iteration     100.00

 eigenvalues of (default mixing * dielectric matrix)
  average eigenvalue GAMMA=   0.5099
  2.1449  0.8830  0.5471  0.2202  0.0788  0.0788  0.0631  0.0631

 Free energy of the ion-electron system (eV)
  ---------------------------------------------------
  alpha Z        PSCENC =      9858.96941913
  Ewald energy   TEWEN  =   -133586.82712532
  -Hartree energ DENC   =    -24742.57054025
  -exchange      EXHF   =         0.00000000
  -V(xc)+E(xc)   XCENC  =      6080.56045254
  PAW double counting   =    169394.15282846  -168366.12350782
  entropy T*S    EENTRO =         0.00669988
  eigenvalues    EBANDS =     -6291.94110182
  atomic energy  EATOM  =    145437.36496220
  Solvation  Ediel_sol  =         0.00000000
  ---------------------------------------------------
  free energy    TOTEN  =     -2216.40791299 eV

  energy without entropy =    -2216.41461287  energy(sigma->0) =    -2216.41014629


--------------------------------------------------------------------------------------------------------




--------------------------------------- Iteration      1(  14)  ---------------------------------------


    POTLOK:  cpu time    0.3080: real time    0.3115
    SETDIJ:  cpu time    3.0480: real time    3.0552
     EDDAV:  cpu time 2882.8800: real time 2887.0893
       DOS:  cpu time    0.2400: real time    0.2409
    CHARGE:  cpu time   61.4560: real time   61.5582
    MIXING:  cpu time    0.0280: real time    0.0286
    --------------------------------------------
      LOOP:  cpu time 2947.9640: real time 2952.2837

 eigenvalue-minimisations  :189568
 total energy-change (2. order) : 0.5453301E+01  (-0.4923027E+01)
 number of electron    1664.0000008 magnetization     135.6949494
 augmentation part       31.7889615 magnetization      93.5289708

 Broyden mixing:
  rms(total) = 0.79087E+01    rms(broyden)= 0.79084E+01
  rms(prec ) = 0.10379E+02
  weight for this iteration     100.00

 eigenvalues of (default mixing * dielectric matrix)
  average eigenvalue GAMMA=   0.4982
  2.3961  0.9095  0.5795  0.1671  0.1671  0.0733  0.0664  0.0664  0.0586

 Free energy of the ion-electron system (eV)
  ---------------------------------------------------
  alpha Z        PSCENC =      9858.96941913
  Ewald energy   TEWEN  =   -133586.82712532
  -Hartree energ DENC   =    -24757.78500086
  -exchange      EXHF   =         0.00000000
  -V(xc)+E(xc)   XCENC  =      6079.76144837
  PAW double counting   =    172751.39412462  -171712.88395550
  entropy T*S    EENTRO =        -0.25587056
  eigenvalues    EBANDS =     -6280.69261370
  atomic energy  EATOM  =    145437.36496220
  Solvation  Ediel_sol  =         0.00000000
  ---------------------------------------------------
  free energy    TOTEN  =     -2210.95461162 eV

  energy without entropy =    -2210.69874106  energy(sigma->0) =    -2210.86932143


--------------------------------------------------------------------------------------------------------




--------------------------------------- Iteration      1(  15)  ---------------------------------------


    POTLOK:  cpu time    0.3080: real time    0.3124
    SETDIJ:  cpu time    3.0600: real time    3.0619
     EDDAV:  cpu time 2865.1240: real time 2869.4721
       DOS:  cpu time    0.2360: real time    0.2357
    CHARGE:  cpu time   61.2920: real time   61.3657
    MIXING:  cpu time    0.0320: real time    0.0313
    --------------------------------------------
      LOOP:  cpu time 2930.0480: real time 2934.4791

 eigenvalue-minimisations  :188168
 total energy-change (2. order) : 0.8725587E+01  (-0.2770871E+01)
 number of electron    1664.0000008 magnetization     134.8582188
 augmentation part       31.0422545 magnetization      90.9489872

 Broyden mixing:
  rms(total) = 0.55380E+01    rms(broyden)= 0.55378E+01
  rms(prec ) = 0.73894E+01
  weight for this iteration     100.00
[...]
   19        1.251   2.821   0.005   0.000   4.077
   20        1.251   2.821   0.005   0.000   4.077
   21        1.251   2.821   0.005   0.000   4.077
   22        1.251   2.821   0.005   0.000   4.077
   23        1.251   2.821   0.005   0.000   4.077
   24        1.251   2.821   0.005   0.000   4.077
   25        1.251   2.821   0.005   0.000   4.077
   26        1.251   2.821   0.005   0.000   4.077
   27        1.251   2.821   0.005   0.000   4.077
   28        1.251   2.821   0.005   0.000   4.077
   29        1.251   2.821   0.005   0.000   4.077
   30        1.251   2.821   0.005   0.000   4.077
   31        1.251   2.821   0.005   0.000   4.077
   32        1.251   2.821   0.005   0.000   4.077
   33        1.251   2.821   0.005   0.000   4.077
   34        1.251   2.821   0.005   0.000   4.077
   35        1.251   2.821   0.005   0.000   4.077
   36        1.251   2.821   0.005   0.000   4.077
   37        1.251   2.821   0.005   0.000   4.077
   38        1.251   2.821   0.005   0.000   4.077
   39        1.251   2.821   0.005   0.000   4.077
   40        1.251   2.821   0.005   0.000   4.077
   41        1.251   2.821   0.005   0.000   4.077
   42        1.251   2.821   0.005   0.000   4.077
   43        1.251   2.821   0.005   0.000   4.077
   44        1.251   2.821   0.005   0.000   4.077
   45        1.251   2.821   0.005   0.000   4.077
   46        1.251   2.821   0.005   0.000   4.077
   47        1.251   2.821   0.005   0.000   4.077
   48        1.251   2.821   0.005   0.000   4.077
   49        1.251   2.821   0.005   0.000   4.077
   50        1.251   2.821   0.005   0.000   4.077
   51        1.251   2.821   0.005   0.000   4.077
   52        1.251   2.821   0.005   0.000   4.077
   53        1.251   2.821   0.005   0.000   4.077
   54        1.251   2.821   0.005   0.000   4.077
   55        1.251   2.821   0.005   0.000   4.077
   56        1.251   2.821   0.005   0.000   4.077
   57        1.251   2.821   0.005   0.000   4.077
   58        1.251   2.821   0.005   0.000   4.077
   59        1.251   2.821   0.005   0.000   4.077
   60        1.251   2.821   0.005   0.000   4.077
   61        1.251   2.821   0.005   0.000   4.077
   62        1.251   2.821   0.005   0.000   4.077
   63        1.251   2.821   0.005   0.000   4.077
   64        1.251   2.821   0.005   0.000   4.077
   65        1.251   2.821   0.005   0.000   4.077
   66        1.251   2.821   0.005   0.000   4.077
   67        1.251   2.821   0.005   0.000   4.077
   68        1.251   2.821   0.005   0.000   4.077
   69        1.251   2.821   0.005   0.000   4.077
   70        1.251   2.821   0.005   0.000   4.077
   71        1.251   2.821   0.005   0.000   4.077
   72        1.251   2.821   0.005   0.000   4.077
   73        1.251   2.821   0.005   0.000   4.077
   74        1.251   2.821   0.005   0.000   4.077
   75        1.251   2.821   0.005   0.000   4.077
   76        1.251   2.821   0.005   0.000   4.077
   77        1.251   2.821   0.005   0.000   4.077
   78        1.251   2.821   0.005   0.000   4.077
   79        1.251   2.821   0.005   0.000   4.077
   80        1.251   2.821   0.005   0.000   4.077
   81        1.251   2.821   0.005   0.000   4.077
   82        1.251   2.821   0.005   0.000   4.077
   83        1.251   2.821   0.005   0.000   4.077
   84        1.251   2.821   0.005   0.000   4.077
   85        1.251   2.821   0.005   0.000   4.077
   86        1.251   2.821   0.005   0.000   4.077
   87        1.251   2.821   0.005   0.000   4.077
   88        1.251   2.821   0.005   0.000   4.077
   89        1.251   2.821   0.005   0.000   4.077
   90        1.251   2.821   0.005   0.000   4.077
   91        1.251   2.821   0.005   0.000   4.077
   92        1.251   2.821   0.005   0.000   4.077
   93        1.251   2.821   0.005   0.000   4.077
   94        1.251   2.821   0.005   0.000   4.077
   95        1.251   2.821   0.005   0.000   4.077
   96        1.251   2.821   0.005   0.000   4.077
   97        1.251   2.821   0.005   0.000   4.077
   98        1.251   2.821   0.005   0.000   4.077
   99        1.251   2.821   0.005   0.000   4.077
  100        1.251   2.821   0.005   0.000   4.077
  101        1.251   2.821   0.005   0.000   4.077
  102        1.251   2.821   0.005   0.000   4.077
  103        1.251   2.821   0.005   0.000   4.077
  104        1.251   2.821   0.005   0.000   4.077
  105        1.251   2.821   0.005   0.000   4.077
  106        1.251   2.821   0.005   0.000   4.077
  107        1.251   2.821   0.005   0.000   4.077
  108        1.251   2.821   0.005   0.000   4.077
  109        1.251   2.821   0.005   0.000   4.077
  110        1.251   2.821   0.005   0.000   4.077
  111        1.251   2.821   0.005   0.000   4.077
  112        1.251   2.821   0.005   0.000   4.077
  113        1.251   2.821   0.005   0.000   4.077
  114        1.251   2.821   0.005   0.000   4.077
  115        1.251   2.821   0.005   0.000   4.077
  116        1.251   2.821   0.005   0.000   4.077
  117        1.251   2.821   0.005   0.000   4.077
  118        1.251   2.821   0.005   0.000   4.077
  119        1.251   2.821   0.005   0.000   4.077
  120        1.251   2.821   0.005   0.000   4.077
  121        1.251   2.821   0.005   0.000   4.077
  122        1.251   2.821   0.005   0.000   4.077
  123        1.251   2.821   0.005   0.000   4.077
  124        1.251   2.821   0.005   0.000   4.077
  125        1.251   2.822   0.005   0.000   4.078
  126        1.251   2.821   0.005   0.000   4.077
  127        1.251   2.821   0.005   0.000   4.077
  128        1.251   2.820   0.005   0.000   4.076
  129        2.000   5.369   0.622   2.436  10.426
  130        2.000   5.369   0.621   2.436  10.426
  131        2.000   5.369   0.622   2.435  10.425
  132        2.000   5.369   0.622   2.436  10.426
  133        2.000   5.369   0.622   2.437  10.427
  134        2.000   5.369   0.622   2.437  10.427
  135        2.000   5.369   0.622   2.436  10.426
  136        2.000   5.369   0.622   2.436  10.426
  137        2.000   5.369   0.622   2.435  10.425
  138        2.000   5.369   0.622   2.436  10.426
  139        2.000   5.369   0.622   2.436  10.426
  140        2.000   5.369   0.622   2.436  10.426
  141        2.000   5.369   0.622   2.436  10.426
  142        2.000   5.369   0.622   2.437  10.428
  143        2.000   5.369   0.622   2.436  10.426
  144        2.000   5.369   0.622   2.437  10.427
  145        2.000   5.369   0.622   2.437  10.427
  146        2.000   5.369   0.622   2.437  10.427
  147        2.000   5.369   0.622   2.436  10.426
  148        2.000   5.369   0.622   2.436  10.426
  149        2.000   5.369   0.622   2.437  10.427
  150        2.000   5.369   0.622   2.436  10.427
  151        2.000   5.369   0.622   2.434  10.424
  152        2.000   5.369   0.622   2.436  10.426
  153        2.000   5.369   0.622   2.437  10.427
  154        2.000   5.369   0.622   2.437  10.427
  155        2.000   5.369   0.622   2.436  10.426
  156        2.000   5.369   0.622   2.437  10.427
  157        2.000   5.369   0.622   2.437  10.427
  158        2.000   5.369   0.622   2.437  10.427
  159        2.000   5.369   0.622   2.436  10.426
  160        2.000   5.369   0.622   2.436  10.427
  161        2.000   5.369   0.622   2.435  10.425
  162        2.000   5.369   0.622   2.436  10.426
  163        2.000   5.369   0.622   2.436  10.427
  164        2.000   5.369   0.622   2.436  10.426
  165        2.000   5.369   0.622   2.437  10.427
  166        2.000   5.369   0.622   2.437  10.427
  167        2.000   5.369   0.622   2.436  10.426
  168        2.000   5.369   0.622   2.437  10.427
  169        2.000   5.369   0.622   2.436  10.426
  170        2.000   5.369   0.622   2.437  10.427
  171        2.000   5.369   0.622   2.436  10.426
  172        2.000   5.369   0.622   2.436  10.426
  173        2.000   5.369   0.622   2.436  10.427
  174        2.000   5.369   0.622   2.436  10.426
  175        2.000   5.369   0.622   2.437  10.427
  176        2.000   5.369   0.622   2.437  10.427
  177        2.000   5.369   0.622   2.436  10.426
  178        2.000   5.369   0.622   2.437  10.428
  179        2.000   5.369   0.622   2.436  10.426
  180        2.000   5.369   0.622   2.437  10.427
  181        2.000   5.369   0.622   2.437  10.427
  182        2.000   5.369   0.622   2.437  10.427
  183        2.000   5.369   0.622   2.436  10.426
  184        2.000   5.369   0.622   2.436  10.427
  185        2.000   5.369   0.622   2.436  10.427
  186        2.000   5.369   0.622   2.436  10.426
  187        2.000   5.369   0.622   2.437  10.427
  188        2.000   5.369   0.622   2.437  10.427
  189        2.000   5.369   0.622   2.433  10.424
  190        2.000   5.369   0.622   2.436  10.426
  191        2.000   5.369   0.622   2.437  10.427
  192        2.000   5.369   0.622   2.437  10.427
--------------------------------------------------
tot         288.06  704.72   40.37  155.97 1189.12

 
magnetization (x)
 
# of ion       s       p       d       f       tot
--------------------------------------------------
    1       -0.003  -0.041   0.002   0.000  -0.043
    2       -0.003  -0.041   0.002   0.000  -0.043
    3       -0.003  -0.041   0.002   0.000  -0.043
    4       -0.003  -0.041   0.001   0.000  -0.043
    5       -0.003  -0.041   0.002   0.000  -0.043
    6       -0.003  -0.041   0.002   0.000  -0.043
    7       -0.003  -0.041   0.002   0.000  -0.043
    8       -0.003  -0.041   0.002   0.000  -0.043
    9       -0.003  -0.041   0.002   0.000  -0.043
   10       -0.003  -0.041   0.002   0.000  -0.043
   11       -0.003  -0.041   0.002   0.000  -0.043
   12       -0.003  -0.041   0.002   0.000  -0.043
   13       -0.003  -0.041   0.002   0.000  -0.043
   14       -0.003  -0.041   0.002   0.000  -0.043
   15       -0.003  -0.041   0.002   0.000  -0.043
   16       -0.003  -0.041   0.002   0.000  -0.043
   17       -0.003  -0.041   0.002   0.000  -0.043
   18       -0.003  -0.041   0.002   0.000  -0.043
   19       -0.003  -0.041   0.002   0.000  -0.043
   20       -0.003  -0.041   0.002   0.000  -0.043
   21       -0.003  -0.041   0.002   0.000  -0.043
   22       -0.003  -0.041   0.002   0.000  -0.043
   23       -0.003  -0.041   0.002   0.000  -0.043
   24       -0.003  -0.041   0.002   0.000  -0.043
   25       -0.003  -0.041   0.002   0.000  -0.043
   26       -0.003  -0.041   0.002   0.000  -0.043
   27       -0.003  -0.041   0.002   0.000  -0.043
   28       -0.003  -0.041   0.002   0.000  -0.043
   29       -0.003  -0.041   0.002   0.000  -0.043
   30       -0.003  -0.041   0.002   0.000  -0.043
   31       -0.003  -0.041   0.002   0.000  -0.043
   32       -0.003  -0.041   0.002   0.000  -0.043
   33       -0.003  -0.041   0.002   0.000  -0.043
   34       -0.003  -0.041   0.002   0.000  -0.043
   35       -0.003  -0.041   0.002   0.000  -0.043
   36       -0.003  -0.041   0.002   0.000  -0.043
   37       -0.003  -0.041   0.002   0.000  -0.043
   38       -0.003  -0.041   0.002   0.000  -0.043
   39       -0.003  -0.041   0.002   0.000  -0.043
   40       -0.003  -0.041   0.002   0.000  -0.043
   41       -0.003  -0.041   0.002   0.000  -0.043
   42       -0.003  -0.041   0.002   0.000  -0.043
   43       -0.003  -0.041   0.002   0.000  -0.043
   44       -0.003  -0.041   0.002   0.000  -0.043
   45       -0.003  -0.041   0.002   0.000  -0.043
   46       -0.003  -0.041   0.002   0.000  -0.043
   47       -0.003  -0.041   0.002   0.000  -0.043
   48       -0.003  -0.041   0.002   0.000  -0.043
   49       -0.003  -0.041   0.002   0.000  -0.043
   50       -0.003  -0.041   0.002   0.000  -0.043
   51       -0.003  -0.041   0.002   0.000  -0.043
   52       -0.003  -0.041   0.002   0.000  -0.043
   53       -0.003  -0.041   0.002   0.000  -0.043
   54       -0.003  -0.041   0.002   0.000  -0.043
   55       -0.003  -0.041   0.002   0.000  -0.043
   56       -0.003  -0.041   0.002   0.000  -0.043
   57       -0.003  -0.041   0.002   0.000  -0.043
   58       -0.003  -0.041   0.002   0.000  -0.043
   59       -0.003  -0.041   0.002   0.000  -0.043
   60       -0.003  -0.041   0.002   0.000  -0.043
   61       -0.003  -0.041   0.002   0.000  -0.043
   62       -0.003  -0.041   0.002   0.000  -0.043
   63       -0.003  -0.041   0.002   0.000  -0.043
   64       -0.003  -0.041   0.002   0.000  -0.043
   65       -0.003  -0.041   0.002   0.000  -0.043
   66       -0.003  -0.041   0.002   0.000  -0.043
   67       -0.003  -0.041   0.002   0.000  -0.043
   68       -0.003  -0.041   0.002   0.000  -0.043
   69       -0.003  -0.041   0.002   0.000  -0.043
   70       -0.003  -0.041   0.002   0.000  -0.043
   71       -0.003  -0.041   0.002   0.000  -0.043
   72       -0.003  -0.041   0.002   0.000  -0.043
   73       -0.003  -0.041   0.002   0.000  -0.043
   74       -0.003  -0.041   0.002   0.000  -0.043
   75       -0.003  -0.041   0.002   0.000  -0.043
   76       -0.003  -0.041   0.002   0.000  -0.043
   77       -0.003  -0.041   0.002   0.000  -0.043
   78       -0.003  -0.041   0.002   0.000  -0.043
   79       -0.003  -0.041   0.002   0.000  -0.043
   80       -0.003  -0.041   0.002   0.000  -0.043
   81       -0.003  -0.041   0.002   0.000  -0.043
   82       -0.003  -0.041   0.002   0.000  -0.043
   83       -0.003  -0.041   0.002   0.000  -0.043
   84       -0.003  -0.041   0.002   0.000  -0.043
   85       -0.003  -0.041   0.002   0.000  -0.043
   86       -0.003  -0.041   0.002   0.000  -0.043
   87       -0.003  -0.041   0.002   0.000  -0.043
   88       -0.003  -0.041   0.002   0.000  -0.043
   89       -0.003  -0.041   0.002   0.000  -0.043
   90       -0.003  -0.041   0.002   0.000  -0.043
   91       -0.003  -0.041   0.002   0.000  -0.043
   92       -0.003  -0.041   0.002   0.000  -0.043
   93       -0.003  -0.041   0.002   0.000  -0.043
   94       -0.003  -0.041   0.002   0.000  -0.043
   95       -0.003  -0.041   0.002   0.000  -0.043
   96       -0.003  -0.041   0.002   0.000  -0.043
   97       -0.003  -0.041   0.002   0.000  -0.043
   98       -0.003  -0.041   0.002   0.000  -0.043
   99       -0.003  -0.041   0.002   0.000  -0.043
  100       -0.003  -0.041   0.002   0.000  -0.043
  101       -0.003  -0.041   0.002   0.000  -0.043
  102       -0.003  -0.041   0.002   0.000  -0.043
  103       -0.003  -0.041   0.002   0.000  -0.043
  104       -0.003  -0.041   0.002   0.000  -0.043
  105       -0.003  -0.041   0.002   0.000  -0.043
  106       -0.003  -0.041   0.002   0.000  -0.043
  107       -0.003  -0.041   0.002   0.000  -0.043
  108       -0.003  -0.041   0.002   0.000  -0.043
  109       -0.003  -0.041   0.002   0.000  -0.043
  110       -0.003  -0.041   0.002   0.000  -0.043
  111       -0.003  -0.041   0.002   0.000  -0.043
  112       -0.003  -0.041   0.002   0.000  -0.043
  113       -0.003  -0.041   0.002   0.000  -0.043
  114       -0.003  -0.041   0.002   0.000  -0.043
  115       -0.003  -0.041   0.002   0.000  -0.043
  116       -0.003  -0.041   0.002   0.000  -0.043
  117       -0.003  -0.041   0.002   0.000  -0.043
  118       -0.003  -0.041   0.002   0.000  -0.043
  119       -0.003  -0.041   0.002   0.000  -0.043
  120       -0.003  -0.041   0.002   0.000  -0.043
  121       -0.003  -0.041   0.002   0.000  -0.043
  122       -0.003  -0.041   0.002   0.000  -0.043
  123       -0.003  -0.041   0.002   0.000  -0.043
  124       -0.003  -0.041   0.002   0.000  -0.043
  125       -0.003  -0.041   0.002   0.000  -0.043
  126       -0.003  -0.041   0.002   0.000  -0.043
  127       -0.003  -0.041   0.002   0.000  -0.043
  128       -0.003  -0.041   0.001   0.000  -0.043
  129        0.007   0.008   0.035   1.833   1.883
  130        0.007   0.008   0.036   1.834   1.884
  131        0.007   0.008   0.035   1.832   1.882
  132        0.007   0.008   0.035   1.831   1.881
  133        0.007   0.008   0.035   1.835   1.885
  134        0.007   0.008   0.035   1.834   1.884
  135        0.007   0.008   0.035   1.832   1.882
  136        0.007   0.008   0.035   1.832   1.882
  137        0.007   0.008   0.035   1.832   1.882
  138        0.007   0.008   0.035   1.832   1.882
  139        0.007   0.008   0.035   1.833   1.883
  140        0.007   0.008   0.035   1.833   1.883
  141        0.007   0.008   0.035   1.832   1.882
  142        0.007   0.008   0.035   1.835   1.885
  143        0.007   0.008   0.035   1.833   1.883
  144        0.007   0.008   0.035   1.833   1.883
  145        0.007   0.008   0.035   1.835   1.885
  146        0.007   0.008   0.035   1.834   1.884
  147        0.007   0.008   0.035   1.832   1.882
  148        0.007   0.008   0.035   1.832   1.882
  149        0.007   0.008   0.035   1.834   1.884
  150        0.007   0.008   0.035   1.833   1.883
  151        0.007   0.008   0.035   1.831   1.881
  152        0.007   0.008   0.035   1.832   1.882
  153        0.007   0.008   0.035   1.834   1.884
  154        0.007   0.008   0.035   1.834   1.884
  155        0.007   0.008   0.035   1.833   1.883
  156        0.007   0.008   0.035   1.834   1.884
  157        0.007   0.008   0.035   1.833   1.883
  158        0.007   0.008   0.035   1.833   1.883
  159        0.007   0.008   0.035   1.833   1.883
  160        0.007   0.008   0.035   1.833   1.883
  161        0.007   0.008   0.035   1.832   1.882
  162        0.007   0.008   0.035   1.832   1.883
  163        0.007   0.008   0.035   1.833   1.883
  164        0.007   0.008   0.035   1.833   1.883
  165        0.007   0.008   0.035   1.834   1.884
  166        0.007   0.008   0.035   1.834   1.884
  167        0.007   0.008   0.035   1.833   1.883
  168        0.007   0.008   0.035   1.834   1.884
  169        0.007   0.008   0.035   1.832   1.882
  170        0.007   0.008   0.035   1.833   1.883
  171        0.007   0.008   0.035   1.833   1.883
  172        0.007   0.008   0.035   1.832   1.882
  173        0.007   0.008   0.035   1.833   1.883
  174        0.007   0.008   0.035   1.833   1.883
  175        0.007   0.008   0.035   1.833   1.883
  176        0.007   0.008   0.035   1.833   1.883
  177        0.007   0.008   0.035   1.832   1.882
  178        0.007   0.008   0.035   1.835   1.885
  179        0.007   0.008   0.035   1.833   1.883
  180        0.007   0.008   0.035   1.833   1.883
  181        0.007   0.008   0.035   1.833   1.883
  182        0.007   0.008   0.035   1.833   1.883
  183        0.007   0.008   0.035   1.833   1.883
  184        0.007   0.008   0.035   1.833   1.883
  185        0.007   0.008   0.035   1.833   1.883
  186        0.007   0.008   0.035   1.833   1.883
  187        0.007   0.008   0.035   1.833   1.883
  188        0.007   0.008   0.035   1.833   1.883
  189        0.007   0.008   0.035   1.830   1.880
  190        0.007   0.008   0.035   1.833   1.883
  191        0.007   0.008   0.035   1.833   1.883
  192        0.007   0.008   0.035   1.833   1.883
--------------------------------------------------
tot           0.03   -4.79    2.46  117.32  115.02

 

 total amount of memory used by VASP MPI-rank0  2614139. kBytes
=======================================================================

   base      :      30000. kBytes
   nonlr-proj:      58075. kBytes
   fftplans  :      75791. kBytes
   grid      :      45997. kBytes
   one-center:        589. kBytes
   wavefun   :    2403687. kBytes
 
  
  
 General timing and accounting informations for this job:
 ========================================================
  
                  Total CPU time used (sec):   267575.750
                            User time (sec):   267128.128
                          System time (sec):      447.620
                         Elapsed time (sec):   267910.390
  
                   Maximum memory used (kb):     3168944.
                   Average memory used (kb):           0.
  
                          Minor page faults:     12096479
                          Major page faults:           16
                 Voluntary context switches:       163882
