 vasp.5.4.4.18Apr17-6-g9f103f2a35 (build Apr 03 2018 15:51:33) complex          
  
 executed on             LinuxIFC date 2018.04.03  18:20:40
 running on   32 total cores
 distrk:  each k-point on   32 cores,    1 groups
 distr:  one band on NCORES_PER_BAND=  32 cores,    1 groups


--------------------------------------------------------------------------------------------------------


 INCAR:
 POTCAR:    PAW O 22Mar2012                       
 POTCAR:    PAW U 17Apr2000                       

 ----------------------------------------------------------------------------- 
|                                                                             |
|           W    W    AA    RRRRR   N    N  II  N    N   GGGG   !!!           |
|           W    W   A  A   R    R  NN   N  II  NN   N  G    G  !!!           |
|           W    W  A    A  R    R  N N  N  II  N N  N  G       !!!           |
|           W WW W  AAAAAA  RRRRR   N  N N  II  N  N N  G  GGG   !            |
|           WW  WW  A    A  R   R   N   NN  II  N   NN  G    G                |
|           W    W  A    A  R    R  N    N  II  N    N   GGGG   !!!           |
|                                                                             |
|      For optimal performance we recommend to set                            |
|        NCORE= 4 - approx SQRT( number of cores)                             |
|      NCORE specifies how many cores store one orbital (NPAR=cpu/NCORE).     |
|      This setting can  greatly improve the performance of VASP for DFT.     |
|      The default,   NCORE=1            might be grossly inefficient         |
|      on modern multi-core architectures or massively parallel machines.     |
|      Do your own testing !!!!                                               |
|      Unfortunately you need to use the default for GW and RPA calculations. |
|      (for HF NCORE is supported but not extensively tested yet)             |
|                                                                             |
 ----------------------------------------------------------------------------- 

 POTCAR:    PAW O 22Mar2012                       
  local pseudopotential read in
  partial core-charges read in
  partial kinetic energy density read in
  kinetic energy density of atom read in
  atomic valenz-charges read in
  non local Contribution for L=           0  read in
    real space projection operators read in
  non local Contribution for L=           0  read in
    real space projection operators read in
  non local Contribution for L=           1  read in
    real space projection operators read in
  non local Contribution for L=           1  read in
    real space projection operators read in
    PAW grid and wavefunctions read in
 
   number of l-projection  operators is LMAX  =           4
   number of lm-projection operators is LMMAX =           8
 
 POTCAR:    PAW U 17Apr2000                       
  local pseudopotential read in
  partial core-charges read in
  partial kinetic energy density read in
  atomic valenz-charges read in
  non local Contribution for L=           0  read in
    real space projection operators read in
  non local Contribution for L=           0  read in
    real space projection operators read in
  non local Contribution for L=           1  read in
    real space projection operators read in
  non local Contribution for L=           1  read in
    real space projection operators read in
  non local Contribution for L=           2  read in
    real space projection operators read in
  non local Contribution for L=           2  read in
    real space projection operators read in
  non local Contribution for L=           3  read in
    real space projection operators read in
  non local Contribution for L=           3  read in
    real space projection operators read in
    PAW grid and wavefunctions read in
 
   number of l-projection  operators is LMAX  =           8
   number of lm-projection operators is LMMAX =          32
 
 Optimization of the real space projectors (new method)

 maximal supplied QI-value         = 24.76
 optimisation between [QCUT,QGAM] = [ 12.38, 25.00] = [ 42.90,175.06] Ry 
 Optimized for a Real-space Cutoff    1.16 Angstroem

   l    n(q)    QCUT    max X(q) W(low)/X(q) W(high)/X(q)  e(spline) 
   0      9    12.378    20.659    0.16E-03    0.72E-05    0.32E-06
   0      9    12.378    15.633    0.18E-03    0.84E-05    0.34E-06
   1      8    12.378     5.864    0.19E-03    0.15E-03    0.30E-06
   1      8    12.378     5.285    0.17E-03    0.14E-03    0.26E-06
 Optimization of the real space projectors (new method)

 maximal supplied QI-value         = 13.42
 optimisation between [QCUT,QGAM] = [ 12.48, 25.09] = [ 43.60,176.28] Ry 
 Optimized for a Real-space Cutoff    1.61 Angstroem

   l    n(q)    QCUT    max X(q) W(low)/X(q) W(high)/X(q)  e(spline) 
   0     12    12.478    11.588    0.21E-04    0.66E-05    0.15E-06
   0     12    12.478     9.707    0.31E-04    0.11E-04    0.26E-06
   1     12    12.478     4.435    0.10E-04    0.98E-05    0.96E-07
   1     12    12.478     4.200    0.16E-04    0.13E-04    0.14E-06
   2     11    12.478    63.768    0.46E-04    0.25E-04    0.34E-06
   2     11    12.478    46.564    0.44E-04    0.24E-04    0.32E-06
   3     11    12.478    59.735    0.13E-03    0.12E-03    0.21E-05
   3     11    12.478    55.756    0.13E-03    0.12E-03    0.21E-05
  PAW O 22Mar2012                       :
 energy of atom  1       EATOM= -431.4380
 kinetic energy error for atom=    0.0165 (will be added to EATOM!!)
  PAW U 17Apr2000                       :
 energy of atom  2       EATOM=-1409.6168
 kinetic energy error for atom=    0.0010 (will be added to EATOM!!)
 
 
 POSCAR: O U                                     
  positions in direct lattice
  No initial velocities read in
 exchange correlation table for  LEXCH =        2
   RHO(1)=    0.500       N(1)  =     2000
   RHO(2)=  100.500       N(2)  =     4000
 


--------------------------------------------------------------------------------------------------------


 ion  position               nearest neighbor table
   1  0.063  0.062  0.062- 130 2.35 133 2.35 145 2.35 129 2.36
   2  0.312  0.062  0.062- 130 2.35 134 2.35 146 2.35 131 2.35
   3  0.562  0.062  0.062- 131 2.35 135 2.35 147 2.35 132 2.35
   4  0.812  0.062  0.062- 132 2.35 136 2.35 148 2.35 129 2.35
   5  0.062  0.312  0.062- 133 2.35 137 2.35 149 2.35 134 2.35
   6  0.312  0.312  0.062- 134 2.35 138 2.35 150 2.35 135 2.35
   7  0.562  0.312  0.062- 135 2.35 139 2.35 151 2.35 136 2.35
   8  0.812  0.312  0.062- 136 2.35 140 2.35 152 2.35 133 2.35
   9  0.062  0.562  0.062- 137 2.35 141 2.35 153 2.35 138 2.35
  10  0.312  0.562  0.062- 138 2.35 142 2.35 154 2.35 139 2.35
  11  0.562  0.562  0.062- 139 2.35 143 2.35 155 2.35 140 2.35
  12  0.812  0.562  0.062- 140 2.35 144 2.35 156 2.35 137 2.35
  13  0.062  0.812  0.062- 141 2.35 129 2.35 157 2.35 142 2.35
  14  0.312  0.812  0.062- 142 2.35 130 2.35 158 2.35 143 2.35
  15  0.562  0.812  0.062- 143 2.35 131 2.35 159 2.35 144 2.35
  16  0.812  0.812  0.062- 144 2.35 132 2.35 160 2.35 141 2.35
  17  0.062  0.062  0.312- 145 2.35 149 2.35 161 2.35 146 2.35
  18  0.312  0.062  0.312- 146 2.35 150 2.35 162 2.35 147 2.35
  19  0.562  0.062  0.312- 147 2.35 151 2.35 163 2.35 148 2.35
  20  0.812  0.062  0.312- 148 2.35 152 2.35 164 2.35 145 2.35
  21  0.062  0.312  0.312- 149 2.35 153 2.35 165 2.35 150 2.35
  22  0.312  0.312  0.312- 150 2.35 154 2.35 166 2.35 151 2.35
  23  0.562  0.312  0.312- 151 2.35 155 2.35 167 2.35 152 2.35
  24  0.812  0.312  0.312- 152 2.35 156 2.35 168 2.35 149 2.35
  25  0.062  0.562  0.312- 153 2.35 157 2.35 169 2.35 154 2.35
  26  0.312  0.562  0.312- 154 2.35 158 2.35 170 2.35 155 2.35
  27  0.562  0.562  0.312- 155 2.35 159 2.35 171 2.35 156 2.35
  28  0.812  0.562  0.312- 156 2.35 160 2.35 172 2.35 153 2.35
  29  0.062  0.812  0.312- 157 2.35 145 2.35 173 2.35 158 2.35
  30  0.312  0.812  0.312- 158 2.35 146 2.35 174 2.35 159 2.35
  31  0.562  0.812  0.312- 159 2.35 147 2.35 175 2.35 160 2.35
  32  0.812  0.812  0.312- 160 2.35 148 2.35 176 2.35 157 2.35
  33  0.062  0.062  0.562- 161 2.35 165 2.35 177 2.35 162 2.35
  34  0.312  0.062  0.562- 162 2.35 166 2.35 178 2.35 163 2.35
  35  0.562  0.062  0.562- 163 2.35 167 2.35 179 2.35 164 2.35
  36  0.812  0.062  0.562- 164 2.35 168 2.35 180 2.35 161 2.35
  37  0.062  0.312  0.562- 165 2.35 169 2.35 181 2.35 166 2.35
  38  0.312  0.312  0.562- 166 2.35 170 2.35 182 2.35 167 2.35
  39  0.562  0.312  0.562- 167 2.35 171 2.35 183 2.35 168 2.35
  40  0.812  0.312  0.562- 168 2.35 172 2.35 184 2.35 165 2.35
  41  0.062  0.562  0.562- 169 2.35 173 2.35 185 2.35 170 2.35
  42  0.312  0.562  0.562- 170 2.35 174 2.35 186 2.35 171 2.35
  43  0.562  0.562  0.562- 171 2.35 175 2.35 187 2.35 172 2.35
  44  0.812  0.562  0.562- 172 2.35 176 2.35 188 2.35 169 2.35
  45  0.062  0.812  0.562- 173 2.35 161 2.35 189 2.35 174 2.35
  46  0.312  0.812  0.562- 174 2.35 162 2.35 190 2.35 175 2.35
  47  0.562  0.812  0.562- 175 2.35 163 2.35 191 2.35 176 2.35
  48  0.812  0.812  0.562- 176 2.35 164 2.35 192 2.35 173 2.35
  49  0.062  0.062  0.812- 177 2.35 181 2.35 129 2.35 178 2.35
  50  0.312  0.062  0.812- 178 2.35 182 2.35 130 2.35 179 2.35
  51  0.562  0.062  0.812- 179 2.35 183 2.35 131 2.35 180 2.35
  52  0.812  0.062  0.812- 180 2.35 184 2.35 132 2.35 177 2.35
  53  0.062  0.312  0.812- 181 2.35 185 2.35 133 2.35 182 2.35
  54  0.312  0.312  0.812- 182 2.35 186 2.35 134 2.35 183 2.35
  55  0.562  0.312  0.812- 183 2.35 187 2.35 135 2.35 184 2.35
  56  0.812  0.312  0.812- 184 2.35 188 2.35 136 2.35 181 2.35
  57  0.062  0.562  0.812- 185 2.35 189 2.35 137 2.35 186 2.35
  58  0.312  0.562  0.812- 186 2.35 190 2.35 138 2.35 187 2.35
  59  0.562  0.562  0.812- 187 2.35 191 2.35 139 2.35 188 2.35
  60  0.812  0.562  0.812- 188 2.35 192 2.35 140 2.35 185 2.35
  61  0.062  0.812  0.812- 189 2.35 177 2.35 141 2.35 190 2.35
  62  0.312  0.812  0.812- 190 2.35 178 2.35 142 2.35 191 2.35
  63  0.562  0.812  0.812- 191 2.35 179 2.35 143 2.35 192 2.35
  64  0.812  0.812  0.812- 192 2.35 180 2.35 144 2.35 189 2.35
  65  0.188  0.188  0.188- 150 2.35 146 2.35 134 2.35 149 2.35
  66  0.438  0.188  0.188- 151 2.35 147 2.35 135 2.35 150 2.35
  67  0.688  0.188  0.188- 152 2.35 148 2.35 136 2.35 151 2.35
  68  0.938  0.188  0.188- 149 2.35 145 2.35 133 2.35 152 2.35
  69  0.188  0.438  0.188- 154 2.35 150 2.35 138 2.35 153 2.35
  70  0.438  0.438  0.188- 155 2.35 151 2.35 139 2.35 154 2.35
  71  0.688  0.438  0.188- 156 2.35 152 2.35 140 2.35 155 2.35
  72  0.938  0.438  0.188- 153 2.35 149 2.35 137 2.35 156 2.35
  73  0.188  0.688  0.188- 158 2.35 154 2.35 142 2.35 157 2.35
  74  0.438  0.688  0.188- 159 2.35 155 2.35 143 2.35 158 2.35
  75  0.688  0.688  0.188- 160 2.35 156 2.35 144 2.35 159 2.35
  76  0.938  0.688  0.188- 157 2.35 153 2.35 141 2.35 160 2.35
  77  0.188  0.938  0.188- 146 2.35 158 2.35 130 2.35 145 2.35
  78  0.438  0.938  0.188- 147 2.35 159 2.35 131 2.35 146 2.35
  79  0.688  0.938  0.188- 148 2.35 160 2.35 132 2.35 147 2.35
  80  0.938  0.938  0.188- 145 2.35 157 2.35 129 2.35 148 2.35
  81  0.188  0.188  0.438- 166 2.35 162 2.35 150 2.35 165 2.35
  82  0.438  0.188  0.438- 167 2.35 163 2.35 151 2.35 166 2.35
  83  0.688  0.188  0.438- 168 2.35 164 2.35 152 2.35 167 2.35
  84  0.938  0.188  0.438- 165 2.35 161 2.35 149 2.35 168 2.35
  85  0.188  0.438  0.438- 170 2.35 166 2.35 154 2.35 169 2.35
  86  0.438  0.438  0.438- 171 2.35 167 2.35 155 2.35 170 2.35
  87  0.688  0.438  0.438- 172 2.35 168 2.35 156 2.35 171 2.35
  88  0.938  0.438  0.438- 169 2.35 165 2.35 153 2.35 172 2.35
  89  0.188  0.688  0.438- 174 2.35 170 2.35 158 2.35 173 2.35
  90  0.438  0.688  0.438- 175 2.35 171 2.35 159 2.35 174 2.35
  91  0.688  0.688  0.438- 176 2.35 172 2.35 160 2.35 175 2.35
  92  0.938  0.688  0.438- 173 2.35 169 2.35 157 2.35 176 2.35
  93  0.188  0.938  0.438- 162 2.35 174 2.35 146 2.35 161 2.35
  94  0.438  0.938  0.438- 163 2.35 175 2.35 147 2.35 162 2.35
  95  0.688  0.938  0.438- 164 2.35 176 2.35 148 2.35 163 2.35
  96  0.938  0.938  0.438- 161 2.35 173 2.35 145 2.35 164 2.35
  97  0.188  0.188  0.688- 182 2.35 178 2.35 166 2.35 181 2.35
  98  0.438  0.188  0.688- 183 2.35 179 2.35 167 2.35 182 2.35
  99  0.688  0.188  0.688- 184 2.35 180 2.35 168 2.35 183 2.35
 100  0.938  0.188  0.688- 181 2.35 177 2.35 165 2.35 184 2.35
 101  0.188  0.438  0.688- 186 2.35 182 2.35 170 2.35 185 2.35
 102  0.438  0.438  0.688- 187 2.35 183 2.35 171 2.35 186 2.35
 103  0.688  0.438  0.688- 188 2.35 184 2.35 172 2.35 187 2.35
 104  0.938  0.438  0.688- 185 2.35 181 2.35 169 2.35 188 2.35
 105  0.188  0.688  0.688- 190 2.35 186 2.35 174 2.35 189 2.35
 106  0.438  0.688  0.688- 191 2.35 187 2.35 175 2.35 190 2.35
 107  0.688  0.688  0.688- 192 2.35 188 2.35 176 2.35 191 2.35
 108  0.938  0.688  0.688- 189 2.35 185 2.35 173 2.35 192 2.35
 109  0.188  0.938  0.688- 178 2.35 190 2.35 162 2.35 177 2.35
 110  0.438  0.938  0.688- 179 2.35 191 2.35 163 2.35 178 2.35
 111  0.688  0.938  0.688- 180 2.35 192 2.35 164 2.35 179 2.35
 112  0.938  0.938  0.688- 177 2.35 189 2.35 161 2.35 180 2.35
 113  0.188  0.188  0.938- 134 2.35 130 2.35 182 2.35 133 2.35
 114  0.438  0.188  0.938- 135 2.35 131 2.35 183 2.35 134 2.35
 115  0.688  0.188  0.938- 136 2.35 132 2.35 184 2.35 135 2.35
 116  0.938  0.188  0.938- 133 2.35 129 2.35 181 2.35 136 2.35
 117  0.188  0.438  0.938- 138 2.35 134 2.35 186 2.35 137 2.35
 118  0.438  0.438  0.938- 139 2.35 135 2.35 187 2.35 138 2.35
 119  0.688  0.438  0.938- 140 2.35 136 2.35 188 2.35 139 2.35
 120  0.938  0.438  0.938- 137 2.35 133 2.35 185 2.35 140 2.35
 121  0.188  0.688  0.938- 142 2.35 138 2.35 190 2.35 141 2.35
 122  0.438  0.688  0.938- 143 2.35 139 2.35 191 2.35 142 2.35
 123  0.688  0.688  0.938- 144 2.35 140 2.35 192 2.35 143 2.35
 124  0.938  0.688  0.938- 141 2.35 137 2.35 189 2.35 144 2.35
 125  0.188  0.938  0.938- 130 2.35 142 2.35 178 2.35 129 2.35
 126  0.438  0.938  0.938- 131 2.35 143 2.35 179 2.35 130 2.35
 127  0.688  0.938  0.938- 132 2.35 144 2.35 180 2.35 131 2.35
 128  0.938  0.938  0.938- 129 2.35 141 2.35 177 2.35 132 2.35
 129  0.000  0.000  0.000- 128 2.35 116 2.35  13 2.35  49 2.35  80 2.35 125 2.35   4 2.35   1 2.36

 130  0.250  0.000  0.000-   1 2.35   2 2.35 125 2.35 113 2.35  14 2.35  50 2.35  77 2.35 126 2.35

 131  0.500  0.000  0.000-   3 2.35 126 2.35 114 2.35  15 2.35  51 2.35  78 2.35   2 2.35 127 2.35

 132  0.750  0.000  0.000-   4 2.35 127 2.35 115 2.35  16 2.35  52 2.35  79 2.35   3 2.35 128 2.35

 133  0.000  0.250  0.000-   5 2.35 116 2.35 120 2.35  53 2.35  68 2.35   8 2.35 113 2.35   1 2.35

 134  0.250  0.250  0.000-   6 2.35 113 2.35   2 2.35 117 2.35  54 2.35  65 2.35 114 2.35   5 2.35

 135  0.500  0.250  0.000-   7 2.35 114 2.35   3 2.35 118 2.35  55 2.35  66 2.35 115 2.35   6 2.35

 136  0.750  0.250  0.000-   8 2.35 115 2.35   4 2.35 119 2.35  56 2.35  67 2.35 116 2.35   7 2.35

 137  0.000  0.500  0.000-   9 2.35 120 2.35   5 2.35 124 2.35  57 2.35  72 2.35  12 2.35 117 2.35

 138  0.250  0.500  0.000-  10 2.35 117 2.35   6 2.35 121 2.35  58 2.35  69 2.35 118 2.35   9 2.35

 139  0.500  0.500  0.000-  11 2.35 118 2.35   7 2.35 122 2.35  59 2.35  70 2.35 119 2.35  10 2.35

 140  0.750  0.500  0.000-  12 2.35 119 2.35   8 2.35 123 2.35  60 2.35  71 2.35 120 2.35  11 2.35

 141  0.000  0.750  0.000-  13 2.35 124 2.35   9 2.35 128 2.35  61 2.35  76 2.35  16 2.35 121 2.35

 142  0.250  0.750  0.000-  14 2.35 121 2.35  10 2.35 125 2.35  62 2.35  73 2.35 122 2.35  13 2.35

 143  0.500  0.750  0.000-  15 2.35 122 2.35  11 2.35 126 2.35  63 2.35  74 2.35 123 2.35  14 2.35

 144  0.750  0.750  0.000-  16 2.35 123 2.35  12 2.35 127 2.35  64 2.35  75 2.35 124 2.35  15 2.35

 145  0.000  0.000  0.250-  17 2.35  80 2.35  68 2.35  29 2.35  96 2.35  20 2.35  77 2.35   1 2.35

 146  0.250  0.000  0.250-  18 2.35  77 2.35  65 2.35  30 2.35   2 2.35  93 2.35  78 2.35  17 2.35

 147  0.500  0.000  0.250-  19 2.35  78 2.35  66 2.35  31 2.35   3 2.35  94 2.35  79 2.35  18 2.35

 148  0.750  0.000  0.250-  20 2.35  79 2.35  67 2.35  32 2.35   4 2.35  95 2.35  80 2.35  19 2.35

 149  0.000  0.250  0.250-  21 2.35  68 2.35  17 2.35  72 2.35   5 2.35  84 2.35  65 2.35  24 2.35

 150  0.250  0.250  0.250-  22 2.35  65 2.35  18 2.35  69 2.35   6 2.35  81 2.35  21 2.35  66 2.35

 151  0.500  0.250  0.250-  23 2.35  66 2.35  19 2.35  70 2.35   7 2.35  82 2.35  22 2.35  67 2.35

 152  0.750  0.250  0.250-  24 2.35  67 2.35  20 2.35  71 2.35   8 2.35  83 2.35  23 2.35  68 2.35

 153  0.000  0.500  0.250-  25 2.35  72 2.35  21 2.35  76 2.35   9 2.35  88 2.35  69 2.35  28 2.35

 154  0.250  0.500  0.250-  26 2.35  69 2.35  22 2.35  73 2.35  10 2.35  85 2.35  25 2.35  70 2.35

 155  0.500  0.500  0.250-  27 2.35  70 2.35  23 2.35  74 2.35  11 2.35  86 2.35  26 2.35  71 2.35

 156  0.750  0.500  0.250-  28 2.35  71 2.35  24 2.35  75 2.35  12 2.35  87 2.35  27 2.35  72 2.35

 157  0.000  0.750  0.250-  29 2.35  76 2.35  25 2.35  80 2.35  13 2.35  92 2.35  73 2.35  32 2.35

 158  0.250  0.750  0.250-  30 2.35  73 2.35  26 2.35  77 2.35  14 2.35  89 2.35  29 2.35  74 2.35

 159  0.500  0.750  0.250-  31 2.35  74 2.35  27 2.35  78 2.35  15 2.35  90 2.35  30 2.35  75 2.35

 160  0.750  0.750  0.250-  32 2.35  75 2.35  28 2.35  79 2.35  16 2.35  91 2.35  31 2.35  76 2.35

 161  0.000  0.000  0.500-  33 2.35  96 2.35  84 2.35  45 2.35  17 2.35 112 2.35  36 2.35  93 2.35

 162  0.250  0.000  0.500-  34 2.35  93 2.35  81 2.35  46 2.35  18 2.35 109 2.35  94 2.35  33 2.35

 163  0.500  0.000  0.500-  35 2.35  94 2.35  82 2.35  47 2.35  19 2.35 110 2.35  95 2.35  34 2.35

 164  0.750  0.000  0.500-  36 2.35  95 2.35  83 2.35  48 2.35  20 2.35 111 2.35  96 2.35  35 2.35

 165  0.000  0.250  0.500-  37 2.35  84 2.35  33 2.35  88 2.35  21 2.35 100 2.35  81 2.35  40 2.35

 166  0.250  0.250  0.500-  38 2.35  81 2.35  34 2.35  85 2.35  22 2.35  97 2.35  37 2.35  82 2.35

 167  0.500  0.250  0.500-  39 2.35  82 2.35  35 2.35  86 2.35  23 2.35  98 2.35  38 2.35  83 2.35

 168  0.750  0.250  0.500-  40 2.35  83 2.35  36 2.35  87 2.35  24 2.35  99 2.35  39 2.35  84 2.35

 169  0.000  0.500  0.500-  41 2.35  88 2.35  37 2.35  92 2.35  25 2.35 104 2.35  85 2.35  44 2.35

 170  0.250  0.500  0.500-  42 2.35  85 2.35  38 2.35  89 2.35  26 2.35 101 2.35  41 2.35  86 2.35

 171  0.500  0.500  0.500-  43 2.35  86 2.35  39 2.35  90 2.35  27 2.35 102 2.35  42 2.35  87 2.35

 172  0.750  0.500  0.500-  44 2.35  87 2.35  40 2.35  91 2.35  28 2.35 103 2.35  43 2.35  88 2.35

 173  0.000  0.750  0.500-  45 2.35  92 2.35  41 2.35  96 2.35  29 2.35 108 2.35  89 2.35  48 2.35

 174  0.250  0.750  0.500-  46 2.35  89 2.35  42 2.35  93 2.35  30 2.35 105 2.35  45 2.35  90 2.35

 175  0.500  0.750  0.500-  47 2.35  90 2.35  43 2.35  94 2.35  31 2.35 106 2.35  46 2.35  91 2.35

 176  0.750  0.750  0.500-  48 2.35  91 2.35  44 2.35  95 2.35  32 2.35 107 2.35  47 2.35  92 2.35

 177  0.000  0.000  0.750-  49 2.35 112 2.35 100 2.35  61 2.35  33 2.35 128 2.35  52 2.35 109 2.35

 178  0.250  0.000  0.750-  50 2.35 109 2.35  97 2.35  62 2.35  34 2.35 125 2.35 110 2.35  49 2.35

 179  0.500  0.000  0.750-  51 2.35 110 2.35  98 2.35  63 2.35  35 2.35 126 2.35 111 2.35  50 2.35

 180  0.750  0.000  0.750-  52 2.35 111 2.35  99 2.35  64 2.35  36 2.35 127 2.35 112 2.35  51 2.35

 181  0.000  0.250  0.750-  53 2.35 100 2.35  49 2.35 104 2.35  37 2.35 116 2.35  97 2.35  56 2.35

 182  0.250  0.250  0.750-  54 2.35  97 2.35  50 2.35 101 2.35  38 2.35 113 2.35  53 2.35  98 2.35

 183  0.500  0.250  0.750-  55 2.35  98 2.35  51 2.35 102 2.35  39 2.35 114 2.35  54 2.35  99 2.35

 184  0.750  0.250  0.750-  56 2.35  99 2.35  52 2.35 103 2.35  40 2.35 115 2.35  55 2.35 100 2.35

 185  0.000  0.500  0.750-  57 2.35 104 2.35  53 2.35 108 2.35  41 2.35 120 2.35 101 2.35  60 2.35

 186  0.250  0.500  0.750-  58 2.35 101 2.35  54 2.35 105 2.35  42 2.35 117 2.35  57 2.35 102 2.35

 187  0.500  0.500  0.750-  59 2.35 102 2.35  55 2.35 106 2.35  43 2.35 118 2.35  58 2.35 103 2.35

 188  0.750  0.500  0.750-  60 2.35 103 2.35  56 2.35 107 2.35  44 2.35 119 2.35  59 2.35 104 2.35

 189  0.000  0.750  0.750-  61 2.35 108 2.35  57 2.35 112 2.35  45 2.35 124 2.35 105 2.35  64 2.35

 190  0.250  0.750  0.750-  62 2.35 105 2.35  58 2.35 109 2.35  46 2.35 121 2.35  61 2.35 106 2.35

 191  0.500  0.750  0.750-  63 2.35 106 2.35  59 2.35 110 2.35  47 2.35 122 2.35  62 2.35 107 2.35

 192  0.750  0.750  0.750-  64 2.35 107 2.35  60 2.35 111 2.35  48 2.35 123 2.35  63 2.35 108 2.35

 
  LATTYP: Found a face centered cubic cell.
 ALAT       =    21.7539907090
  
  Lattice vectors:
  
 A1 = (  15.3823943600,   0.0000000000,   0.0000000000)
 A2 = (   7.6911971600,  13.3215442800,   0.0000000000)
 A3 = (   7.6911971600,   4.4405147600,  12.5596724000)


Analysis of symmetry for initial positions (statically):
=====================================================================
 Subroutine PRICEL returns:
 Original cell was already a primitive cell.
 

 Routine SETGRP: Setting up the symmetry group for a 
 face centered cubic supercell.


 Subroutine GETGRP returns: Found  2 space group operations
 (whereof  2 operations were pure point group operations)
 out of a pool of 48 trial point group operations.


The static configuration has the point symmetry C_1h.


Analysis of symmetry for dynamics (positions and initial velocities):
=====================================================================
 Subroutine PRICEL returns:
 Original cell was already a primitive cell.
 

 Routine SETGRP: Setting up the symmetry group for a 
 face centered cubic supercell.


 Subroutine GETGRP returns: Found  2 space group operations
 (whereof  2 operations were pure point group operations)
 out of a pool of 48 trial point group operations.


The dynamic configuration has the point symmetry C_1h.


Analysis of structural, dynamic, and magnetic symmetry:
=====================================================================
 Subroutine PRICEL returns:
 Original cell was already a primitive cell.
 

 Routine SETGRP: Setting up the symmetry group for a 
 face centered cubic supercell.


 Subroutine GETGRP returns: Found  2 space group operations
 (whereof  2 operations were pure point group operations)
 out of a pool of 48 trial point group operations.


The magnetic configuration has the point symmetry C_1h.


 Subroutine INISYM returns: Found  2 space group operations
 (whereof  2 operations are pure point group operations),
 and found     1 'primitive' translations

 
 
 KPOINTS: Automatic mesh                          

Automatic generation of k-mesh.
Space group operators:
 irot       det(A)        alpha          n_x          n_y          n_z        tau_x        tau_y        tau_z
    1     1.000000     0.000000     1.000000     0.000000     0.000000     0.000000     0.000000     0.000000
    2    -1.000000   180.000000     0.000000    -0.577350     0.816497     0.000000     0.000000     0.000000
 
 Subroutine IBZKPT returns following result:
 ===========================================
 
 Found     24 irreducible k-points:
 
 Following reciprocal coordinates:
            Coordinates               Weight
  0.000000  0.000000  0.000000      1.000000
  0.250000  0.000000  0.000000      2.000000
  0.500000  0.000000  0.000000      1.000000
  0.000000  0.250000  0.000000      4.000000
  0.250000  0.250000  0.000000      4.000000
  0.500000  0.250000  0.000000      4.000000
 -0.250000  0.250000 -0.000000      4.000000
  0.000000  0.500000  0.000000      2.000000
  0.250000  0.500000  0.000000      4.000000
  0.500000  0.500000  0.000000      2.000000
  0.000000  0.250000  0.250000      2.000000
  0.250000  0.250000  0.250000      2.000000
  0.500000  0.250000  0.250000      2.000000
 -0.250000  0.250000  0.250000      2.000000
  0.000000  0.500000  0.250000      4.000000
  0.250000  0.500000  0.250000      4.000000
  0.500000  0.500000  0.250000      4.000000
 -0.250000  0.500000  0.250000      4.000000
  0.000000 -0.250000  0.250000      2.000000
  0.250000 -0.250000  0.250000      4.000000
  0.500000 -0.250000  0.250000      2.000000
  0.000000  0.500000  0.500000      1.000000
  0.250000  0.500000  0.500000      2.000000
  0.500000  0.500000  0.500000      1.000000
 
 Following cartesian coordinates:
            Coordinates               Weight
  0.000000  0.000000  0.000000      1.000000
  0.016252 -0.009383 -0.006635      2.000000
  0.032505 -0.018767 -0.013270      1.000000
  0.000000  0.018767 -0.006635      4.000000
  0.016252  0.009383 -0.013270      4.000000
  0.032505  0.000000 -0.019905      4.000000
 -0.016252  0.028150 -0.000000      4.000000
  0.000000  0.037533 -0.013270      2.000000
  0.016252  0.028150 -0.019905      4.000000
  0.032505  0.018767 -0.026540      2.000000
  0.000000  0.018767  0.013270      2.000000
  0.016252  0.009383  0.006635      2.000000
  0.032505  0.000000  0.000000      2.000000
 -0.016252  0.028150  0.019905      2.000000
  0.000000  0.037533  0.006635      4.000000
  0.016252  0.028150  0.000000      4.000000
  0.032505  0.018767 -0.006635      4.000000
 -0.016252  0.046916  0.013270      4.000000
  0.000000 -0.018767  0.026540      2.000000
  0.016252 -0.028150  0.019905      4.000000
  0.032505 -0.037533  0.013270      2.000000
  0.000000  0.037533  0.026540      1.000000
  0.016252  0.028150  0.019905      2.000000
  0.032505  0.018767  0.013270      1.000000
 


--------------------------------------------------------------------------------------------------------




 Dimension of arrays:
   k-points           NKPTS =     24   k-points in BZ     NKDIM =     24   number of bands    NBANDS=   1123
   number of dos      NEDOS =    301   number of ions     NIONS =    192
   non local maximal  LDIM  =      8   non local SUM 2l+1 LMDIM =     32
   total plane-waves  NPLWV = ******
   max r-space proj   IRMAX =  13564   max aug-charges    IRDMAX= 379397
   dimension x,y,z NGX =   126 NGY =  126 NGZ =  126
   dimension x,y,z NGXF=   252 NGYF=  252 NGZF=  252
   support grid    NGXF=   504 NGYF=  504 NGZF=  504
   ions per type =             128  64
   NGX,Y,Z   is equivalent  to a cutoff of  13.62, 13.62, 13.62 a.u.
   NGXF,Y,Z  is equivalent  to a cutoff of  27.24, 27.24, 27.24 a.u.

 SYSTEM =  No title                                
 POSCAR =  O U                                     

 Startparameter for this run:
   NWRITE =      1    write-flag & timer
   PREC   = accura    normal or accurate (medium, high low for compatibility)
   ISTART =      0    job   : 0-new  1-cont  2-samecut
   ICHARG =      2    charge: 1-file 2-atom 10-const
   ISPIN  =      2    spin polarized calculation?
   LNONCOLLINEAR =      F non collinear calculations
   LSORBIT =      F    spin-orbit coupling
   INIWAV =      1    electr: 0-lowe 1-rand  2-diag
   LASPH  =      F    aspherical Exc in radial PAW
   METAGGA=      F    non-selfconsistent MetaGGA calc.

 Electronic Relaxation 1
   ENCUT  =  600.0 eV  44.10 Ry    6.64 a.u.  30.72 30.72 30.72*2*pi/ulx,y,z
   ENINI  =  600.0     initial cutoff
   ENAUG  =  605.4 eV  augmentation charge cutoff
   NELM   =    100;   NELMIN=  2; NELMDL= -5     # of ELM steps 
   EDIFF  = 0.1E-05   stopping-criterion for ELM
   LREAL  =      T    real-space projection
   NLSPLINE    = F    spline interpolate recip. space projectors
   LCOMPAT=      F    compatible to vasp.4.4
   GGA_COMPAT  = T    GGA compatible to vasp.4.4-vasp.4.6
   LMAXPAW     = -100 max onsite density
   LMAXMIX     =    0 max onsite mixed and CHGCAR
   VOSKOWN=      1    Vosko Wilk Nusair interpolation
   ROPT   =   -0.00025  -0.00025
 Ionic relaxation
   EDIFFG = -.2E-01   stopping-criterion for IOM
   NSW    =      0    number of steps for IOM
   NBLOCK =      1;   KBLOCK =      1    inner block; outer block 
   IBRION =     -1    ionic relax: 0-MD 1-quasi-New 2-CG
   NFREE  =      0    steps in history (QN), initial steepest desc. (CG)
   ISIF   =      2    stress and relaxation
   IWAVPR =     10    prediction:  0-non 1-charg 2-wave 3-comb
   ISYM   =      2    0-nonsym 1-usesym 2-fastsym
   LCORR  =      T    Harris-Foulkes like correction to forces

   POTIM  = 0.5000    time-step for ionic-motion
   TEIN   =    0.0    initial temperature
   TEBEG  =    0.0;   TEEND  =   0.0 temperature during run
   SMASS  =  -3.00    Nose mass-parameter (am)
   estimated Nose-frequenzy (Omega)   =  0.10E-29 period in steps =****** mass=  -0.541E-26a.u.
   SCALEE = 1.0000    scale energy and forces
   NPACO  =    256;   APACO  = 16.0  distance and # of slots for P.C.
   PSTRESS=    0.0 pullay stress

  Mass of Ions in am
   POMASS =  16.00238.03
  Ionic Valenz
   ZVAL   =   6.00 14.00
  Atomic Wigner-Seitz radii
   RWIGS  =   0.73  1.42
  virtual crystal weights 
   VCA    =   1.00  1.00
   NELECT =    1664.0000    total number of electrons
   NUPDOWN=      -1.0000    fix difference up-down

 DOS related values:
   EMIN   =  10.00;   EMAX   =-10.00  energy-range for DOS
   EFERMI =   0.00
   ISMEAR =     1;   SIGMA  =   0.20  broadening in eV -4-tet -1-fermi 0-gaus

 Electronic relaxation 2 (details)
   IALGO  =     38    algorithm
   LDIAG  =      T    sub-space diagonalisation (order eigenvalues)
   LSUBROT=      F    optimize rotation matrix (better conditioning)
   TURBO    =      0    0=normal 1=particle mesh
   IRESTART =      0    0=no restart 2=restart with 2 vectors
   NREBOOT  =      0    no. of reboots
   NMIN     =      0    reboot dimension
   EREF     =   0.00    reference energy to select bands
   IMIX   =      4    mixing-type and parameters
     AMIX     =   0.40;   BMIX     =  1.00
     AMIX_MAG =   1.60;   BMIX_MAG =  1.00
     AMIN     =   0.10
     WC   =   100.;   INIMIX=   1;  MIXPRE=   1;  MAXMIX= -45

 Intra band minimization:
   WEIMIN = 0.0000     energy-eigenvalue tresh-hold
   EBREAK =  0.22E-09  absolut break condition
   DEPER  =   0.30     relativ break condition  

   TIME   =   0.40     timestep for ELM

  volume/ion in A,a.u.               =      13.40        90.46
  Fermi-wavevector in a.u.,A,eV,Ry     =   1.415599  2.675095 27.265004  2.003921
  Thomas-Fermi vector in A             =   2.537021
 
 Write flags
   LWAVE        =      T    write WAVECAR
   LDOWNSAMPLE  =      F    k-point downsampling of WAVECAR
   LCHARG       =      F    write CHGCAR
   LVTOT        =      F    write LOCPOT, total local potential
   LVHAR        =      F    write LOCPOT, Hartree potential only
   LELF         =      F    write electronic localiz. function (ELF)
   LORBIT       =      0    0 simple, 1 ext, 2 COOP (PROOUT), +10 PAW based schemes


 Dipole corrections
   LMONO  =      F    monopole corrections only (constant potential shift)
   LDIPOL =      F    correct potential (dipole corrections)
   IDIPOL =      0    1-x, 2-y, 3-z, 4-all directions 
   EPSILON=  1.0000000 bulk dielectric constant

 LDA+U is selected, type is set to LDAUTYPE =  2
   angular momentum for each species LDAUL =    -1    0
   U (eV)           for each species LDAUU =   0.0  4.0
   J (eV)           for each species LDAUJ =   0.0  0.0
 Exchange correlation treatment:
   GGA     =    --    GGA type
   LEXCH   =     2    internal setting for exchange type
   VOSKOWN=      1    Vosko Wilk Nusair interpolation
   LHFCALC =     F    Hartree Fock is set to
   LHFONE  =     F    Hartree Fock one center treatment
   AEXX    =    0.0000 exact exchange contribution

 Linear response parameters
   LEPSILON=     F    determine dielectric tensor
   LRPA    =     F    only Hartree local field effects (RPA)
   LNABLA  =     F    use nabla operator in PAW spheres
   LVEL    =     F    velocity operator in full k-point grid
   LINTERFAST=   F  fast interpolation
   KINTER  =     0    interpolate to denser k-point grid
   CSHIFT  =0.1000    complex shift for real part using Kramers Kronig
   OMEGAMAX=  -1.0    maximum frequency
   DEG_THRESHOLD= 0.2000000E-02 threshold for treating states as degnerate
   RTIME   =   -0.100 relaxation time in fs
  (WPLASMAI=    0.000 imaginary part of plasma frequency in eV, 0.658/RTIME)
   DFIELD  = 0.0000000 0.0000000 0.0000000 field for delta impulse in time
 
 Orbital magnetization related:
   ORBITALMAG=     F  switch on orbital magnetization
   LCHIMAG   =     F  perturbation theory with respect to B field
   DQ        =  0.001000  dq finite difference perturbation B field
   LLRAUG    =     F  two centre corrections for induced B field



--------------------------------------------------------------------------------------------------------


 Static calculation
 charge density and potential will be updated during run
 spin polarized calculation
 Variant of blocked Davidson
 Davidson routine will perform the subspace rotation
 perform sub-space diagonalisation
    after iterative eigenvector-optimisation
 modified Broyden-mixing scheme, WC =      100.0
 initial mixing is a Kerker type mixing with AMIX =  0.4000 and BMIX =      1.0000
 Hartree-type preconditioning will be used
 using additional bands          291
 real space projection scheme for non local part
 use partial core corrections
 calculate Harris-corrections to forces 
   (improved forces if not selfconsistent)
 use of overlap-Matrix (Vanderbilt PP)
 Methfessel and Paxton  Order N= 1 SIGMA  =   0.20


--------------------------------------------------------------------------------------------------------


  energy-cutoff  :      600.00
  volume of cell :     2573.69
      direct lattice vectors                 reciprocal lattice vectors
    15.382394360  0.000000000  0.000000000     0.065009385 -0.037533186 -0.026539970
     7.691197160 13.321544280  0.000000000     0.000000000  0.075066372 -0.026539970
     7.691197160  4.440514760 12.559672400     0.000000000  0.000000000  0.079619911

  length of vectors
    15.382394360 15.382394344 15.382394348     0.079619911  0.079619911  0.079619911


 
 k-points in units of 2pi/SCALE and weight: Automatic mesh                          
   0.00000000  0.00000000  0.00000000       0.016
   0.01625235 -0.00938330 -0.00663499       0.031
   0.03250469 -0.01876659 -0.01326999       0.016
   0.00000000  0.01876659 -0.00663499       0.062
   0.01625235  0.00938330 -0.01326999       0.062
   0.03250469  0.00000000 -0.01990498       0.062
  -0.01625235  0.02814989 -0.00000000       0.062
   0.00000000  0.03753319 -0.01326999       0.031
   0.01625235  0.02814989 -0.01990498       0.062
   0.03250469  0.01876659 -0.02653997       0.031
   0.00000000  0.01876659  0.01326999       0.031
   0.01625235  0.00938330  0.00663499       0.031
   0.03250469  0.00000000  0.00000000       0.031
  -0.01625235  0.02814989  0.01990498       0.031
   0.00000000  0.03753319  0.00663499       0.062
   0.01625235  0.02814989  0.00000000       0.062
   0.03250469  0.01876659 -0.00663499       0.062
  -0.01625235  0.04691648  0.01326999       0.062
   0.00000000 -0.01876659  0.02653997       0.031
   0.01625235 -0.02814989  0.01990498       0.062
   0.03250469 -0.03753319  0.01326999       0.031
   0.00000000  0.03753319  0.02653997       0.016
   0.01625235  0.02814989  0.01990498       0.031
   0.03250469  0.01876659  0.01326999       0.016
 
 k-points in reciprocal lattice and weights: Automatic mesh                          
   0.00000000  0.00000000  0.00000000       0.016
   0.25000000  0.00000000  0.00000000       0.031
   0.50000000  0.00000000  0.00000000       0.016
   0.00000000  0.25000000  0.00000000       0.062
   0.25000000  0.25000000  0.00000000       0.062
   0.50000000  0.25000000  0.00000000       0.062
  -0.25000000  0.25000000 -0.00000000       0.062
   0.00000000  0.50000000  0.00000000       0.031
   0.25000000  0.50000000  0.00000000       0.062
   0.50000000  0.50000000  0.00000000       0.031
   0.00000000  0.25000000  0.25000000       0.031
   0.25000000  0.25000000  0.25000000       0.031
   0.50000000  0.25000000  0.25000000       0.031
  -0.25000000  0.25000000  0.25000000       0.031
   0.00000000  0.50000000  0.25000000       0.062
   0.25000000  0.50000000  0.25000000       0.062
   0.50000000  0.50000000  0.25000000       0.062
  -0.25000000  0.50000000  0.25000000       0.062
   0.00000000 -0.25000000  0.25000000       0.031
   0.25000000 -0.25000000  0.25000000       0.062
   0.50000000 -0.25000000  0.25000000       0.031
   0.00000000  0.50000000  0.50000000       0.016
   0.25000000  0.50000000  0.50000000       0.031
   0.50000000  0.50000000  0.50000000       0.016
 
 position of ions in fractional coordinates (direct lattice) 
   0.06315009  0.06250000  0.06250000
   0.31250000  0.06250000  0.06250000
   0.56250000  0.06250000  0.06250000
   0.81250000  0.06250000  0.06250000
   0.06250000  0.31250000  0.06250000
   0.31250000  0.31250000  0.06250000
   0.56250000  0.31250000  0.06250000
   0.81250000  0.31250000  0.06250000
   0.06250000  0.56250000  0.06250000
   0.31250000  0.56250000  0.06250000
   0.56250000  0.56250000  0.06250000
   0.81250000  0.56250000  0.06250000
   0.06250000  0.81250000  0.06250000
   0.31250000  0.81250000  0.06250000
   0.56250000  0.81250000  0.06250000
   0.81250000  0.81250000  0.06250000
   0.06250000  0.06250000  0.31250000
   0.31250000  0.06250000  0.31250000
   0.56250000  0.06250000  0.31250000
   0.81250000  0.06250000  0.31250000
   0.06250000  0.31250000  0.31250000
   0.31250000  0.31250000  0.31250000
   0.56250000  0.31250000  0.31250000
   0.81250000  0.31250000  0.31250000
   0.06250000  0.56250000  0.31250000
   0.31250000  0.56250000  0.31250000
   0.56250000  0.56250000  0.31250000
   0.81250000  0.56250000  0.31250000
   0.06250000  0.81250000  0.31250000
   0.31250000  0.81250000  0.31250000
   0.56250000  0.81250000  0.31250000
   0.81250000  0.81250000  0.31250000
   0.06250000  0.06250000  0.56250000
   0.31250000  0.06250000  0.56250000
   0.56250000  0.06250000  0.56250000
   0.81250000  0.06250000  0.56250000
   0.06250000  0.31250000  0.56250000
   0.31250000  0.31250000  0.56250000
   0.56250000  0.31250000  0.56250000
   0.81250000  0.31250000  0.56250000
   0.06250000  0.56250000  0.56250000
   0.31250000  0.56250000  0.56250000
   0.56250000  0.56250000  0.56250000
   0.81250000  0.56250000  0.56250000
   0.06250000  0.81250000  0.56250000
   0.31250000  0.81250000  0.56250000
   0.56250000  0.81250000  0.56250000
   0.81250000  0.81250000  0.56250000
   0.06250000  0.06250000  0.81250000
   0.31250000  0.06250000  0.81250000
   0.56250000  0.06250000  0.81250000
   0.81250000  0.06250000  0.81250000
   0.06250000  0.31250000  0.81250000
   0.31250000  0.31250000  0.81250000
   0.56250000  0.31250000  0.81250000
   0.81250000  0.31250000  0.81250000
   0.06250000  0.56250000  0.81250000
   0.31250000  0.56250000  0.81250000
   0.56250000  0.56250000  0.81250000
   0.81250000  0.56250000  0.81250000
   0.06250000  0.81250000  0.81250000
   0.31250000  0.81250000  0.81250000
   0.56250000  0.81250000  0.81250000
   0.81250000  0.81250000  0.81250000
   0.18750000  0.18750000  0.18750000
   0.43750000  0.18750000  0.18750000
   0.68750000  0.18750000  0.18750000
   0.93750000  0.18750000  0.18750000
   0.18750000  0.43750000  0.18750000
   0.43750000  0.43750000  0.18750000
   0.68750000  0.43750000  0.18750000
   0.93750000  0.43750000  0.18750000
   0.18750000  0.68750000  0.18750000
   0.43750000  0.68750000  0.18750000
   0.68750000  0.68750000  0.18750000
   0.93750000  0.68750000  0.18750000
   0.18750000  0.93750000  0.18750000
   0.43750000  0.93750000  0.18750000
   0.68750000  0.93750000  0.18750000
   0.93750000  0.93750000  0.18750000
   0.18750000  0.18750000  0.43750000
   0.43750000  0.18750000  0.43750000
   0.68750000  0.18750000  0.43750000
   0.93750000  0.18750000  0.43750000
   0.18750000  0.43750000  0.43750000
   0.43750000  0.43750000  0.43750000
   0.68750000  0.43750000  0.43750000
   0.93750000  0.43750000  0.43750000
   0.18750000  0.68750000  0.43750000
   0.43750000  0.68750000  0.43750000
   0.68750000  0.68750000  0.43750000
   0.93750000  0.68750000  0.43750000
   0.18750000  0.93750000  0.43750000
   0.43750000  0.93750000  0.43750000
   0.68750000  0.93750000  0.43750000
   0.93750000  0.93750000  0.43750000
   0.18750000  0.18750000  0.68750000
   0.43750000  0.18750000  0.68750000
   0.68750000  0.18750000  0.68750000
   0.93750000  0.18750000  0.68750000
   0.18750000  0.43750000  0.68750000
   0.43750000  0.43750000  0.68750000
   0.68750000  0.43750000  0.68750000
   0.93750000  0.43750000  0.68750000
   0.18750000  0.68750000  0.68750000
   0.43750000  0.68750000  0.68750000
   0.68750000  0.68750000  0.68750000
   0.93750000  0.68750000  0.68750000
   0.18750000  0.93750000  0.68750000
   0.43750000  0.93750000  0.68750000
   0.68750000  0.93750000  0.68750000
   0.93750000  0.93750000  0.68750000
   0.18750000  0.18750000  0.93750000
   0.43750000  0.18750000  0.93750000
   0.68750000  0.18750000  0.93750000
   0.93750000  0.18750000  0.93750000
   0.18750000  0.43750000  0.93750000
   0.43750000  0.43750000  0.93750000
   0.68750000  0.43750000  0.93750000
   0.93750000  0.43750000  0.93750000
   0.18750000  0.68750000  0.93750000
   0.43750000  0.68750000  0.93750000
   0.68750000  0.68750000  0.93750000
   0.93750000  0.68750000  0.93750000
   0.18750000  0.93750000  0.93750000
   0.43750000  0.93750000  0.93750000
   0.68750000  0.93750000  0.93750000
   0.93750000  0.93750000  0.93750000
   0.00000000  0.00000000  0.00000000
   0.25000000  0.00000000  0.00000000
   0.50000000  0.00000000  0.00000000
   0.75000000  0.00000000  0.00000000
   0.00000000  0.25000000  0.00000000
   0.25000000  0.25000000  0.00000000
   0.50000000  0.25000000  0.00000000
   0.75000000  0.25000000  0.00000000
   0.00000000  0.50000000  0.00000000
   0.25000000  0.50000000  0.00000000
   0.50000000  0.50000000  0.00000000
   0.75000000  0.50000000  0.00000000
   0.00000000  0.75000000  0.00000000
   0.25000000  0.75000000  0.00000000
   0.50000000  0.75000000  0.00000000
   0.75000000  0.75000000  0.00000000
   0.00000000  0.00000000  0.25000000
   0.25000000  0.00000000  0.25000000
   0.50000000  0.00000000  0.25000000
   0.75000000  0.00000000  0.25000000
   0.00000000  0.25000000  0.25000000
   0.25000000  0.25000000  0.25000000
   0.50000000  0.25000000  0.25000000
   0.75000000  0.25000000  0.25000000
   0.00000000  0.50000000  0.25000000
   0.25000000  0.50000000  0.25000000
   0.50000000  0.50000000  0.25000000
   0.75000000  0.50000000  0.25000000
   0.00000000  0.75000000  0.25000000
   0.25000000  0.75000000  0.25000000
   0.50000000  0.75000000  0.25000000
   0.75000000  0.75000000  0.25000000
   0.00000000  0.00000000  0.50000000
   0.25000000  0.00000000  0.50000000
   0.50000000  0.00000000  0.50000000
   0.75000000  0.00000000  0.50000000
   0.00000000  0.25000000  0.50000000
   0.25000000  0.25000000  0.50000000
   0.50000000  0.25000000  0.50000000
   0.75000000  0.25000000  0.50000000
   0.00000000  0.50000000  0.50000000
   0.25000000  0.50000000  0.50000000
   0.50000000  0.50000000  0.50000000
   0.75000000  0.50000000  0.50000000
   0.00000000  0.75000000  0.50000000
   0.25000000  0.75000000  0.50000000
   0.50000000  0.75000000  0.50000000
   0.75000000  0.75000000  0.50000000
   0.00000000  0.00000000  0.75000000
   0.25000000  0.00000000  0.75000000
   0.50000000  0.00000000  0.75000000
   0.75000000  0.00000000  0.75000000
   0.00000000  0.25000000  0.75000000
   0.25000000  0.25000000  0.75000000
   0.50000000  0.25000000  0.75000000
   0.75000000  0.25000000  0.75000000
   0.00000000  0.50000000  0.75000000
   0.25000000  0.50000000  0.75000000
   0.50000000  0.50000000  0.75000000
   0.75000000  0.50000000  0.75000000
   0.00000000  0.75000000  0.75000000
   0.25000000  0.75000000  0.75000000
   0.50000000  0.75000000  0.75000000
   0.75000000  0.75000000  0.75000000
 
 position of ions in cartesian coordinates  (Angst):
   1.93279929  1.11012869  0.78497953
   5.76839788  1.11012869  0.78497953
   9.61399647  1.11012869  0.78497953
  13.45959506  1.11012869  0.78497953
   3.84559858  4.44051476  0.78497953
   7.69119717  4.44051476  0.78497953
  11.53679576  4.44051476  0.78497953
  15.38239435  4.44051476  0.78497953
   5.76839787  7.77090083  0.78497953
   9.61399646  7.77090083  0.78497953
  13.45959505  7.77090083  0.78497953
  17.30519364  7.77090083  0.78497953
   7.69119716 11.10128690  0.78497953
  11.53679575 11.10128690  0.78497953
  15.38239434 11.10128690  0.78497953
  19.22799293 11.10128690  0.78497953
   3.84559858  2.22025738  3.92489762
   7.69119717  2.22025738  3.92489762
  11.53679576  2.22025738  3.92489762
  15.38239435  2.22025738  3.92489762
   5.76839787  5.55064345  3.92489762
   9.61399646  5.55064345  3.92489762
  13.45959505  5.55064345  3.92489762
  17.30519364  5.55064345  3.92489762
   7.69119716  8.88102952  3.92489762
  11.53679575  8.88102952  3.92489762
  15.38239434  8.88102952  3.92489762
  19.22799293  8.88102952  3.92489762
   9.61399645 12.21141559  3.92489762
  13.45959504 12.21141559  3.92489762
  17.30519363 12.21141559  3.92489762
  21.15079222 12.21141559  3.92489762
   5.76839787  3.33038607  7.06481572
   9.61399646  3.33038607  7.06481572
  13.45959505  3.33038607  7.06481572
  17.30519364  3.33038607  7.06481572
   7.69119716  6.66077214  7.06481572
  11.53679575  6.66077214  7.06481572
  15.38239434  6.66077214  7.06481572
  19.22799293  6.66077214  7.06481572
   9.61399645  9.99115821  7.06481572
  13.45959504  9.99115821  7.06481572
  17.30519363  9.99115821  7.06481572
  21.15079222  9.99115821  7.06481572
  11.53679574 13.32154428  7.06481572
  15.38239433 13.32154428  7.06481572
  19.22799292 13.32154428  7.06481572
  23.07359151 13.32154428  7.06481572
   7.69119716  4.44051476 10.20473382
  11.53679575  4.44051476 10.20473382
  15.38239434  4.44051476 10.20473382
  19.22799293  4.44051476 10.20473382
   9.61399645  7.77090083 10.20473382
  13.45959504  7.77090083 10.20473382
  17.30519363  7.77090083 10.20473382
  21.15079222  7.77090083 10.20473382
  11.53679574 11.10128690 10.20473382
  15.38239433 11.10128690 10.20473382
  19.22799292 11.10128690 10.20473382
  23.07359151 11.10128690 10.20473382
  13.45959503 14.43167297 10.20473382
  17.30519362 14.43167297 10.20473382
  21.15079221 14.43167297 10.20473382
  24.99639080 14.43167297 10.20473382
   5.76839788  3.33038607  2.35493858
   9.61399647  3.33038607  2.35493858
  13.45959506  3.33038607  2.35493858
  17.30519365  3.33038607  2.35493858
   7.69119717  6.66077214  2.35493858
  11.53679576  6.66077214  2.35493858
  15.38239435  6.66077214  2.35493858
  19.22799294  6.66077214  2.35493858
   9.61399646  9.99115821  2.35493858
  13.45959505  9.99115821  2.35493858
  17.30519364  9.99115821  2.35493858
  21.15079223  9.99115821  2.35493858
  11.53679575 13.32154428  2.35493858
  15.38239434 13.32154428  2.35493858
  19.22799293 13.32154428  2.35493858
  23.07359152 13.32154428  2.35493858
   7.69119717  4.44051476  5.49485668
  11.53679576  4.44051476  5.49485668
  15.38239435  4.44051476  5.49485668
  19.22799294  4.44051476  5.49485668
   9.61399646  7.77090083  5.49485668
  13.45959505  7.77090083  5.49485668
  17.30519364  7.77090083  5.49485668
  21.15079223  7.77090083  5.49485668
  11.53679575 11.10128690  5.49485668
  15.38239434 11.10128690  5.49485668
  19.22799293 11.10128690  5.49485668
  23.07359152 11.10128690  5.49485668
  13.45959504 14.43167297  5.49485668
  17.30519363 14.43167297  5.49485668
  21.15079222 14.43167297  5.49485668
  24.99639081 14.43167297  5.49485668
   9.61399646  5.55064345  8.63477478
  13.45959505  5.55064345  8.63477478
  17.30519364  5.55064345  8.63477478
  21.15079223  5.55064345  8.63477478
  11.53679575  8.88102952  8.63477478
  15.38239434  8.88102952  8.63477478
  19.22799293  8.88102952  8.63477478
  23.07359152  8.88102952  8.63477478
  13.45959504 12.21141559  8.63477478
  17.30519363 12.21141559  8.63477478
  21.15079222 12.21141559  8.63477478
  24.99639081 12.21141559  8.63477478
  15.38239433 15.54180166  8.63477478
  19.22799292 15.54180166  8.63477478
  23.07359151 15.54180166  8.63477478
  26.91919010 15.54180166  8.63477478
  11.53679575  6.66077214 11.77469287
  15.38239434  6.66077214 11.77469287
  19.22799293  6.66077214 11.77469287
  23.07359152  6.66077214 11.77469287
  13.45959504  9.99115821 11.77469287
  17.30519363  9.99115821 11.77469287
  21.15079222  9.99115821 11.77469287
  24.99639081  9.99115821 11.77469287
  15.38239433 13.32154428 11.77469287
  19.22799292 13.32154428 11.77469287
  23.07359151 13.32154428 11.77469287
  26.91919010 13.32154428 11.77469287
  17.30519362 16.65193035 11.77469287
  21.15079221 16.65193035 11.77469287
  24.99639080 16.65193035 11.77469287
  28.84198939 16.65193035 11.77469287
   0.00000000  0.00000000  0.00000000
   3.84559859  0.00000000  0.00000000
   7.69119718  0.00000000  0.00000000
  11.53679577  0.00000000  0.00000000
   1.92279929  3.33038607  0.00000000
   5.76839788  3.33038607  0.00000000
   9.61399647  3.33038607  0.00000000
  13.45959506  3.33038607  0.00000000
   3.84559858  6.66077214  0.00000000
   7.69119717  6.66077214  0.00000000
  11.53679576  6.66077214  0.00000000
  15.38239435  6.66077214  0.00000000
   5.76839787  9.99115821  0.00000000
   9.61399646  9.99115821  0.00000000
  13.45959505  9.99115821  0.00000000
  17.30519364  9.99115821  0.00000000
   1.92279929  1.11012869  3.13991810
   5.76839788  1.11012869  3.13991810
   9.61399647  1.11012869  3.13991810
  13.45959506  1.11012869  3.13991810
   3.84559858  4.44051476  3.13991810
   7.69119717  4.44051476  3.13991810
  11.53679576  4.44051476  3.13991810
  15.38239435  4.44051476  3.13991810
   5.76839787  7.77090083  3.13991810
   9.61399646  7.77090083  3.13991810
  13.45959505  7.77090083  3.13991810
  17.30519364  7.77090083  3.13991810
   7.69119716 11.10128690  3.13991810
  11.53679575 11.10128690  3.13991810
  15.38239434 11.10128690  3.13991810
  19.22799293 11.10128690  3.13991810
   3.84559858  2.22025738  6.27983620
   7.69119717  2.22025738  6.27983620
  11.53679576  2.22025738  6.27983620
  15.38239435  2.22025738  6.27983620
   5.76839787  5.55064345  6.27983620
   9.61399646  5.55064345  6.27983620
  13.45959505  5.55064345  6.27983620
  17.30519364  5.55064345  6.27983620
   7.69119716  8.88102952  6.27983620
  11.53679575  8.88102952  6.27983620
  15.38239434  8.88102952  6.27983620
  19.22799293  8.88102952  6.27983620
   9.61399645 12.21141559  6.27983620
  13.45959504 12.21141559  6.27983620
  17.30519363 12.21141559  6.27983620
  21.15079222 12.21141559  6.27983620
   5.76839787  3.33038607  9.41975430
   9.61399646  3.33038607  9.41975430
  13.45959505  3.33038607  9.41975430
  17.30519364  3.33038607  9.41975430
   7.69119716  6.66077214  9.41975430
  11.53679575  6.66077214  9.41975430
  15.38239434  6.66077214  9.41975430
  19.22799293  6.66077214  9.41975430
   9.61399645  9.99115821  9.41975430
  13.45959504  9.99115821  9.41975430
  17.30519363  9.99115821  9.41975430
  21.15079222  9.99115821  9.41975430
  11.53679574 13.32154428  9.41975430
  15.38239433 13.32154428  9.41975430
  19.22799292 13.32154428  9.41975430
  23.07359151 13.32154428  9.41975430
 


--------------------------------------------------------------------------------------------------------


 k-point  1 :   0.0000 0.0000 0.0000  plane waves:   85851
 k-point  2 :   0.2500 0.0000 0.0000  plane waves:   85910
 k-point  3 :   0.5000 0.0000 0.0000  plane waves:   85940
 k-point  4 :   0.0000 0.2500 0.0000  plane waves:   85910
 k-point  5 :   0.2500 0.2500 0.0000  plane waves:   85867
 k-point  6 :   0.5000 0.2500 0.0000  plane waves:   85897
 k-point  7 :  -0.2500 0.2500-0.0000  plane waves:   85891
 k-point  8 :   0.0000 0.5000 0.0000  plane waves:   85940
 k-point  9 :   0.2500 0.5000 0.0000  plane waves:   85897
 k-point 10 :   0.5000 0.5000 0.0000  plane waves:   85896
 k-point 11 :   0.0000 0.2500 0.2500  plane waves:   85867
 k-point 12 :   0.2500 0.2500 0.2500  plane waves:   85910
 k-point 13 :   0.5000 0.2500 0.2500  plane waves:   85891
 k-point 14 :  -0.2500 0.2500 0.2500  plane waves:   85897
 k-point 15 :   0.0000 0.5000 0.2500  plane waves:   85897
 k-point 16 :   0.2500 0.5000 0.2500  plane waves:   85891
 k-point 17 :   0.5000 0.5000 0.2500  plane waves:   85897
 k-point 18 :  -0.2500 0.5000 0.2500  plane waves:   85900
 k-point 19 :   0.0000-0.2500 0.2500  plane waves:   85891
 k-point 20 :   0.2500-0.2500 0.2500  plane waves:   85897
 k-point 21 :   0.5000-0.2500 0.2500  plane waves:   85900
 k-point 22 :   0.0000 0.5000 0.5000  plane waves:   85896
 k-point 23 :   0.2500 0.5000 0.5000  plane waves:   85897
 k-point 24 :   0.5000 0.5000 0.5000  plane waves:   85940

 maximum and minimum number of plane-waves per node :      2725     2645

 maximum number of plane-waves:     85940
 maximum index in each direction: 
   IXMAX=   30   IYMAX=   30   IZMAX=   30
   IXMIN=  -31   IYMIN=  -31   IZMIN=  -31


 real space projection operators:
  total allocation   :     249364.12 KBytes
  max/ min on nodes  :      11177.75       2244.12


 parallel 3D FFT for wavefunctions:
    minimum data exchange during FFTs selected (reduces bandwidth)
 parallel 3D FFT for charge:
    minimum data exchange during FFTs selected (reduces bandwidth)


 total amount of memory used by VASP MPI-rank0  2614140. kBytes
=======================================================================

   base      :      30000. kBytes
   nonlr-proj:      58076. kBytes
   fftplans  :      75791. kBytes
   grid      :      45997. kBytes
   one-center:        589. kBytes
   wavefun   :    2403687. kBytes
 
     INWAV:  cpu time    0.0000: real time    0.0002
 Broyden mixing: mesh for mixing (old mesh)
   NGX = 61   NGY = 61   NGZ = 61
  (NGX  =252   NGY  =252   NGZ  =252)
  gives a total of 226981 points

 initial charge density was supplied:
 charge density of overlapping atoms calculated
 number of electron    1664.0000000 magnetization     249.8560000
 keeping initial charge density in first step


--------------------------------------------------------------------------------------------------------


 Maximum index for non-local projection operator          622
 Maximum index for augmentation-charges        13202 (set IRDMAX)


--------------------------------------------------------------------------------------------------------


 First call to EWALD:  gamma=   0.129
 Maximum number of real-space cells 3x 3x 3
 Maximum number of reciprocal cells 3x 3x 3

    FEWALD:  cpu time    0.0240: real time    0.0235


--------------------------------------- Iteration      1(   1)  ---------------------------------------


    POTLOK:  cpu time    0.3120: real time    0.3183
    SETDIJ:  cpu time    3.0400: real time    3.0521
     EDDAV:  cpu time 1983.0480: real time 1986.3895
       DOS:  cpu time    0.1600: real time    0.1607
    --------------------------------------------
      LOOP:  cpu time 1986.5600: real time 1989.9207

 eigenvalue-minimisations  :107808
 total energy-change (2. order) : 0.2562953E+05  (-0.7549890E+05)
 number of electron    1664.0000000 magnetization     249.8560000
 augmentation part     1664.0000000 magnetization     249.8560000

 Free energy of the ion-electron system (eV)
  ---------------------------------------------------
  alpha Z        PSCENC =      9858.96941913
  Ewald energy   TEWEN  =   -133586.84253709
  -Hartree energ DENC   =    -22558.91290765
  -exchange      EXHF   =         0.00000000
  -V(xc)+E(xc)   XCENC  =      5951.13786260
  PAW double counting   =    117349.60863424  -116097.10627122
  entropy T*S    EENTRO =        -0.00626572
  eigenvalues    EBANDS =     19275.31222808
  atomic energy  EATOM  =    145437.36496220
  Solvation  Ediel_sol  =         0.00000000
  ---------------------------------------------------
  free energy    TOTEN  =     25629.52512456 eV

  energy without entropy =    25629.53139028  energy(sigma->0) =    25629.52721314


--------------------------------------------------------------------------------------------------------




--------------------------------------- Iteration      1(   2)  ---------------------------------------


     EDDAV:  cpu time 1986.6960: real time 1989.8696
       DOS:  cpu time    0.1960: real time    0.1956
    --------------------------------------------
      LOOP:  cpu time 1986.8920: real time 1990.0653

 eigenvalue-minimisations  :107816
 total energy-change (2. order) :-0.1994190E+05  (-0.1790631E+05)
 number of electron    1664.0000000 magnetization     249.8560000
 augmentation part     1664.0000000 magnetization     249.8560000

 Free energy of the ion-electron system (eV)
  ---------------------------------------------------
  alpha Z        PSCENC =      9858.96941913
  Ewald energy   TEWEN  =   -133586.84253709
  -Hartree energ DENC   =    -22558.91290765
  -exchange      EXHF   =         0.00000000
  -V(xc)+E(xc)   XCENC  =      5951.13786260
  PAW double counting   =    117349.60863424  -116097.10627122
  entropy T*S    EENTRO =        -0.00814204
  eigenvalues    EBANDS =      -666.58613753
  atomic energy  EATOM  =    145437.36496220
  Solvation  Ediel_sol  =         0.00000000
  ---------------------------------------------------
  free energy    TOTEN  =      5687.62488262 eV

  energy without entropy =     5687.63302467  energy(sigma->0) =     5687.62759664


--------------------------------------------------------------------------------------------------------




--------------------------------------- Iteration      1(   3)  ---------------------------------------


     EDDAV:  cpu time 2137.0600: real time 2139.8739
       DOS:  cpu time    0.2160: real time    0.2186
    --------------------------------------------
      LOOP:  cpu time 2137.2760: real time 2140.0924

 eigenvalue-minimisations  :118633
 total energy-change (2. order) :-0.5975712E+04  (-0.5164416E+04)
 number of electron    1664.0000000 magnetization     249.8560000
 augmentation part     1664.0000000 magnetization     249.8560000

 Free energy of the ion-electron system (eV)
  ---------------------------------------------------
  alpha Z        PSCENC =      9858.96941913
  Ewald energy   TEWEN  =   -133586.84253709
  -Hartree energ DENC   =    -22558.91290765
  -exchange      EXHF   =         0.00000000
  -V(xc)+E(xc)   XCENC  =      5951.13786260
  PAW double counting   =    117349.60863424  -116097.10627122
  entropy T*S    EENTRO =         0.27991514
  eigenvalues    EBANDS =     -6642.58592500
  atomic energy  EATOM  =    145437.36496220
  Solvation  Ediel_sol  =         0.00000000
  ---------------------------------------------------
  free energy    TOTEN  =      -288.08684766 eV

  energy without entropy =     -288.36676280  energy(sigma->0) =     -288.18015271


--------------------------------------------------------------------------------------------------------




--------------------------------------- Iteration      1(   4)  ---------------------------------------


     EDDAV:  cpu time 2322.2440: real time 2322.6126
       DOS:  cpu time    0.2400: real time    0.2391
    --------------------------------------------
      LOOP:  cpu time 2322.4840: real time 2322.8517

 eigenvalue-minimisations  :131400
 total energy-change (2. order) :-0.1742842E+04  (-0.1622347E+04)
 number of electron    1664.0000000 magnetization     249.8560000
 augmentation part     1664.0000000 magnetization     249.8560000

 Free energy of the ion-electron system (eV)
  ---------------------------------------------------
  alpha Z        PSCENC =      9858.96941913
  Ewald energy   TEWEN  =   -133586.84253709
  -Hartree energ DENC   =    -22558.91290765
  -exchange      EXHF   =         0.00000000
  -V(xc)+E(xc)   XCENC  =      5951.13786260
  PAW double counting   =    117349.60863424  -116097.10627122
  entropy T*S    EENTRO =        -0.16553079
  eigenvalues    EBANDS =     -8384.98202983
  atomic energy  EATOM  =    145437.36496220
  Solvation  Ediel_sol  =         0.00000000
  ---------------------------------------------------
  free energy    TOTEN  =     -2030.92839841 eV

  energy without entropy =    -2030.76286763  energy(sigma->0) =    -2030.87322148


--------------------------------------------------------------------------------------------------------




--------------------------------------- Iteration      1(   5)  ---------------------------------------


     EDDAV:  cpu time 3198.7280: real time 3199.0720
       DOS:  cpu time    0.2360: real time    0.2340
    CHARGE:  cpu time   76.1480: real time   76.1812
    MIXING:  cpu time    0.0240: real time    0.0248
    --------------------------------------------
      LOOP:  cpu time 3275.1360: real time 3275.5121

 eigenvalue-minimisations  :193416
 total energy-change (2. order) :-0.1866163E+03  (-0.1809187E+03)
 number of electron    1664.0000011 magnetization     211.3891324
 augmentation part       65.4612990 magnetization     173.4019751

 Broyden mixing:
  rms(total) = 0.13943E+02    rms(broyden)= 0.13943E+02
  rms(prec ) = 0.15052E+02
  weight for this iteration     100.00

 Free energy of the ion-electron system (eV)
  ---------------------------------------------------
  alpha Z        PSCENC =      9858.96941913
  Ewald energy   TEWEN  =   -133586.84253709
  -Hartree energ DENC   =    -22558.91290765
  -exchange      EXHF   =         0.00000000
  -V(xc)+E(xc)   XCENC  =      5951.13786260
  PAW double counting   =    117349.60863424  -116097.10627122
  entropy T*S    EENTRO =        -0.11229286
  eigenvalues    EBANDS =     -8571.65160179
  atomic energy  EATOM  =    145437.36496220
  Solvation  Ediel_sol  =         0.00000000
  ---------------------------------------------------
  free energy    TOTEN  =     -2217.54473245 eV

  energy without entropy =    -2217.43243960  energy(sigma->0) =    -2217.50730150


--------------------------------------------------------------------------------------------------------




--------------------------------------- Iteration      1(   6)  ---------------------------------------


    POTLOK:  cpu time    0.3080: real time    0.3114
    SETDIJ:  cpu time    3.0680: real time    3.0691
     EDDAV:  cpu time 2951.4400: real time 2951.8495
       DOS:  cpu time    0.2160: real time    0.2158
    CHARGE:  cpu time   75.9840: real time   75.9889
    MIXING:  cpu time    0.0240: real time    0.0235
    --------------------------------------------
      LOOP:  cpu time 3031.0400: real time 3031.4582

 eigenvalue-minimisations  :176264
 total energy-change (2. order) : 0.1614786E+02  (-0.1708385E+03)
 number of electron    1664.0000009 magnetization     190.5532536
 augmentation part       52.6954812 magnetization     155.4599953

 Broyden mixing:
  rms(total) = 0.63559E+01    rms(broyden)= 0.63539E+01
  rms(prec ) = 0.70975E+01
  weight for this iteration     100.00

 eigenvalues of (default mixing * dielectric matrix)
  average eigenvalue GAMMA=   0.8392
  0.8392

 Free energy of the ion-electron system (eV)
  ---------------------------------------------------
  alpha Z        PSCENC =      9858.96941913
  Ewald energy   TEWEN  =   -133586.84253709
  -Hartree energ DENC   =    -24204.81157078
  -exchange      EXHF   =         0.00000000
  -V(xc)+E(xc)   XCENC  =      6087.46503055
  PAW double counting   =    135359.68312236  -134365.38180846
  entropy T*S    EENTRO =        -0.79593689
  eigenvalues    EBANDS =     -6787.04755371
  atomic energy  EATOM  =    145437.36496220
  Solvation  Ediel_sol  =         0.00000000
  ---------------------------------------------------
  free energy    TOTEN  =     -2201.39687268 eV

  energy without entropy =    -2200.60093579  energy(sigma->0) =    -2201.13156038


--------------------------------------------------------------------------------------------------------




--------------------------------------- Iteration      1(   7)  ---------------------------------------


    POTLOK:  cpu time    0.3040: real time    0.3082
    SETDIJ:  cpu time    3.0680: real time    3.0691
     EDDAV:  cpu time 3076.4760: real time 3078.9003
       DOS:  cpu time    0.2280: real time    0.2283
    CHARGE:  cpu time   76.1440: real time   76.2379
    MIXING:  cpu time    0.0240: real time    0.0239
    --------------------------------------------
      LOOP:  cpu time 3156.2440: real time 3158.7677

 eigenvalue-minimisations  :185288
 total energy-change (2. order) : 0.1319058E+01  (-0.4087775E+02)
 number of electron    1664.0000009 magnetization     185.1897641
 augmentation part       36.5641451 magnetization     142.2297188

 Broyden mixing:
  rms(total) = 0.74374E+01    rms(broyden)= 0.74372E+01
  rms(prec ) = 0.91745E+01
  weight for this iteration     100.00

 eigenvalues of (default mixing * dielectric matrix)
  average eigenvalue GAMMA=   0.5192
  0.8524  0.1859

 Free energy of the ion-electron system (eV)
  ---------------------------------------------------
  alpha Z        PSCENC =      9858.96941913
  Ewald energy   TEWEN  =   -133586.84253709
  -Hartree energ DENC   =    -24293.36908034
  -exchange      EXHF   =         0.00000000
  -V(xc)+E(xc)   XCENC  =      6064.75940532
  PAW double counting   =    146680.11056361  -145659.41910522
  entropy T*S    EENTRO =        -0.29443409
  eigenvalues    EBANDS =     -6701.35700866
  atomic energy  EATOM  =    145437.36496220
  Solvation  Ediel_sol  =         0.00000000
  ---------------------------------------------------
  free energy    TOTEN  =     -2200.07781515 eV

  energy without entropy =    -2199.78338106  energy(sigma->0) =    -2199.97967045


--------------------------------------------------------------------------------------------------------




--------------------------------------- Iteration      1(   8)  ---------------------------------------


    POTLOK:  cpu time    0.3040: real time    0.3079
    SETDIJ:  cpu time    3.0680: real time    3.0755
     EDDAV:  cpu time 3165.5920: real time 3171.0316
       DOS:  cpu time    0.2160: real time    0.2164
    CHARGE:  cpu time   76.3160: real time   76.4274
    MIXING:  cpu time    0.0240: real time    0.0245
    --------------------------------------------
      LOOP:  cpu time 3245.5200: real time 3251.0833

 eigenvalue-minimisations  :191792
 total energy-change (2. order) :-0.3149224E+02  (-0.1352895E+02)
 number of electron    1664.0000009 magnetization     170.4173139
 augmentation part       36.7601216 magnetization     128.3670450

 Broyden mixing:
  rms(total) = 0.11708E+02    rms(broyden)= 0.11708E+02
  rms(prec ) = 0.15279E+02
  weight for this iteration     100.00

 eigenvalues of (default mixing * dielectric matrix)
  average eigenvalue GAMMA=   0.5343
  0.9406  0.5753  0.0869

 Free energy of the ion-electron system (eV)
  ---------------------------------------------------
  alpha Z        PSCENC =      9858.96941913
  Ewald energy   TEWEN  =   -133586.84253709
  -Hartree energ DENC   =    -24350.14775381
  -exchange      EXHF   =         0.00000000
  -V(xc)+E(xc)   XCENC  =      6066.59406386
  PAW double counting   =    149499.40771042  -148481.84501070
  entropy T*S    EENTRO =        -0.09230337
  eigenvalues    EBANDS =     -6674.97860302
  atomic energy  EATOM  =    145437.36496220
  Solvation  Ediel_sol  =         0.00000000
  ---------------------------------------------------
  free energy    TOTEN  =     -2231.57005238 eV

  energy without entropy =    -2231.47774901  energy(sigma->0) =    -2231.53928459


--------------------------------------------------------------------------------------------------------




--------------------------------------- Iteration      1(   9)  ---------------------------------------


    POTLOK:  cpu time    0.3040: real time    0.3087
    SETDIJ:  cpu time    3.0760: real time    3.0797
     EDDAV:  cpu time 3075.8240: real time 3079.5036
       DOS:  cpu time    0.2160: real time    0.2162
    CHARGE:  cpu time   76.7200: real time   76.7702
    MIXING:  cpu time    0.0240: real time    0.0268
    --------------------------------------------
      LOOP:  cpu time 3156.1640: real time 3159.9052

 eigenvalue-minimisations  :185416
 total energy-change (2. order) :-0.3193329E+02  (-0.9935904E+01)
 number of electron    1664.0000009 magnetization     161.6431536
 augmentation part       36.4408431 magnetization     120.7091459

 Broyden mixing:
  rms(total) = 0.14200E+02    rms(broyden)= 0.14199E+02
  rms(prec ) = 0.18991E+02
  weight for this iteration     100.00

 eigenvalues of (default mixing * dielectric matrix)
  average eigenvalue GAMMA=   0.5007
  1.1081  0.7022  0.1194  0.0733

 Free energy of the ion-electron system (eV)
  ---------------------------------------------------
  alpha Z        PSCENC =      9858.96941913
  Ewald energy   TEWEN  =   -133586.84253709
  -Hartree energ DENC   =    -24533.93851713
  -exchange      EXHF   =         0.00000000
  -V(xc)+E(xc)   XCENC  =      6074.14947191
  PAW double counting   =    157425.51714488  -156412.10855495
  entropy T*S    EENTRO =         0.17081375
  eigenvalues    EBANDS =     -6526.78554110
  atomic energy  EATOM  =    145437.36496220
  Solvation  Ediel_sol  =         0.00000000
  ---------------------------------------------------
  free energy    TOTEN  =     -2263.50333839 eV

  energy without entropy =    -2263.67415215  energy(sigma->0) =    -2263.56027631


--------------------------------------------------------------------------------------------------------




--------------------------------------- Iteration      1(  10)  ---------------------------------------


    POTLOK:  cpu time    0.3080: real time    0.3143
    SETDIJ:  cpu time    3.0720: real time    3.0722
     EDDAV:  cpu time 3112.0520: real time 3112.4930
       DOS:  cpu time    0.2240: real time    0.2262
    CHARGE:  cpu time   76.3560: real time   76.3552
    MIXING:  cpu time    0.0240: real time    0.0259
    --------------------------------------------
      LOOP:  cpu time 3192.0360: real time 3192.4867

 eigenvalue-minimisations  :187880
 total energy-change (2. order) : 0.2833456E+02  (-0.5894499E+01)
 number of electron    1664.0000008 magnetization     156.9659709
 augmentation part       34.0400939 magnetization     116.9747746

 Broyden mixing:
  rms(total) = 0.12532E+02    rms(broyden)= 0.12532E+02
  rms(prec ) = 0.16684E+02
  weight for this iteration     100.00

 eigenvalues of (default mixing * dielectric matrix)
  average eigenvalue GAMMA=   0.4497
  1.2187  0.7362  0.1466  0.0821  0.0648

 Free energy of the ion-electron system (eV)
  ---------------------------------------------------
  alpha Z        PSCENC =      9858.96941913
  Ewald energy   TEWEN  =   -133586.84253709
  -Hartree energ DENC   =    -24642.35733166
  -exchange      EXHF   =         0.00000000
  -V(xc)+E(xc)   XCENC  =      6078.12840848
  PAW double counting   =    162144.04401804  -161130.17715500
  entropy T*S    EENTRO =         0.09402824
  eigenvalues    EBANDS =     -6394.39259360
  atomic energy  EATOM  =    145437.36496220
  Solvation  Ediel_sol  =         0.00000000
  ---------------------------------------------------
  free energy    TOTEN  =     -2235.16878126 eV

  energy without entropy =    -2235.26280950  energy(sigma->0) =    -2235.20012401


--------------------------------------------------------------------------------------------------------




--------------------------------------- Iteration      1(  11)  ---------------------------------------


    POTLOK:  cpu time    0.3040: real time    0.3154
    SETDIJ:  cpu time    3.0800: real time    3.0789
     EDDAV:  cpu time 3145.5480: real time 3146.1033
       DOS:  cpu time    0.2280: real time    0.2340
    CHARGE:  cpu time   76.8240: real time   76.8352
    MIXING:  cpu time    0.0240: real time    0.0264
    --------------------------------------------
      LOOP:  cpu time 3226.0080: real time 3226.5932

 eigenvalue-minimisations  :190176
 total energy-change (2. order) : 0.2725330E+02  (-0.5583586E+01)
 number of electron    1664.0000008 magnetization     152.2644176
 augmentation part       32.3167648 magnetization     109.2331710

 Broyden mixing:
  rms(total) = 0.65811E+01    rms(broyden)= 0.65807E+01
  rms(prec ) = 0.85942E+01
  weight for this iteration     100.00

 eigenvalues of (default mixing * dielectric matrix)
  average eigenvalue GAMMA=   0.4414
  1.3721  0.7668  0.2400  0.1424  0.0636  0.0636

 Free energy of the ion-electron system (eV)
  ---------------------------------------------------
  alpha Z        PSCENC =      9858.96941913
  Ewald energy   TEWEN  =   -133586.84253709
  -Hartree energ DENC   =    -24690.92918459
  -exchange      EXHF   =         0.00000000
  -V(xc)+E(xc)   XCENC  =      6079.48803530
  PAW double counting   =    164505.25733351  -163489.58268874
  entropy T*S    EENTRO =        -0.29525202
  eigenvalues    EBANDS =     -6321.34557342
  atomic energy  EATOM  =    145437.36496220
  Solvation  Ediel_sol  =         0.00000000
  ---------------------------------------------------
  free energy    TOTEN  =     -2207.91548572 eV

  energy without entropy =    -2207.62023370  energy(sigma->0) =    -2207.81706838


--------------------------------------------------------------------------------------------------------




--------------------------------------- Iteration      1(  12)  ---------------------------------------


    POTLOK:  cpu time    0.3040: real time    0.3072
    SETDIJ:  cpu time    3.0800: real time    3.0780
     EDDAV:  cpu time 3102.0240: real time 3102.4278
       DOS:  cpu time    0.2080: real time    0.2103
    CHARGE:  cpu time   76.7440: real time   76.7477
    MIXING:  cpu time    0.0280: real time    0.0272
    --------------------------------------------
      LOOP:  cpu time 3182.3880: real time 3182.7981

 eigenvalue-minimisations  :187064
 total energy-change (2. order) :-0.4058887E+01  (-0.4570333E+01)
 number of electron    1664.0000008 magnetization     147.6955978
 augmentation part       32.0946420 magnetization     104.6105069

 Broyden mixing:
  rms(total) = 0.91550E+01    rms(broyden)= 0.91548E+01
  rms(prec ) = 0.11725E+02
  weight for this iteration     100.00

 eigenvalues of (default mixing * dielectric matrix)
  average eigenvalue GAMMA=   0.4507
  1.5972  0.8023  0.3824  0.1749  0.0666  0.0656  0.0656

 Free energy of the ion-electron system (eV)
  ---------------------------------------------------
  alpha Z        PSCENC =      9858.96941913
  Ewald energy   TEWEN  =   -133586.84253709
  -Hartree energ DENC   =    -24721.47166607
  -exchange      EXHF   =         0.00000000
  -V(xc)+E(xc)   XCENC  =      6080.39229784
  PAW double counting   =    166841.82331104  -165821.52348873
  entropy T*S    EENTRO =         0.02411113
  eigenvalues    EBANDS =     -6300.71078218
  atomic energy  EATOM  =    145437.36496220
  Solvation  Ediel_sol  =         0.00000000
  ---------------------------------------------------
  free energy    TOTEN  =     -2211.97437273 eV

  energy without entropy =    -2211.99848386  energy(sigma->0) =    -2211.98240977


--------------------------------------------------------------------------------------------------------




--------------------------------------- Iteration      1(  13)  ---------------------------------------


    POTLOK:  cpu time    0.3040: real time    0.3078
    SETDIJ:  cpu time    3.0720: real time    3.0730
     EDDAV:  cpu time 3114.5640: real time 3114.8655
       DOS:  cpu time    0.2240: real time    0.2235
    CHARGE:  cpu time   76.5560: real time   76.5584
    MIXING:  cpu time    0.0280: real time    0.0279
    --------------------------------------------
      LOOP:  cpu time 3194.7480: real time 3195.0561

 eigenvalue-minimisations  :188032
 total energy-change (2. order) :-0.1630601E+01  (-0.6780237E+01)
 number of electron    1664.0000008 magnetization     138.8895760
 augmentation part       31.9421794 magnetization      97.0037621

 Broyden mixing:
  rms(total) = 0.85499E+01    rms(broyden)= 0.85496E+01
  rms(prec ) = 0.11505E+02
  weight for this iteration     100.00

 eigenvalues of (default mixing * dielectric matrix)
  average eigenvalue GAMMA=   0.5133
  2.1831  0.8812  0.5601  0.1862  0.1032  0.0684  0.0684  0.0563

 Free energy of the ion-electron system (eV)
  ---------------------------------------------------
  alpha Z        PSCENC =      9858.96941913
  Ewald energy   TEWEN  =   -133586.84253709
  -Hartree energ DENC   =    -24737.98011641
  -exchange      EXHF   =         0.00000000
  -V(xc)+E(xc)   XCENC  =      6080.60562747
  PAW double counting   =    169057.53565675  -168031.15370096
  entropy T*S    EENTRO =        -0.26216718
  eigenvalues    EBANDS =     -6291.84211742
  atomic energy  EATOM  =    145437.36496220
  Solvation  Ediel_sol  =         0.00000000
  ---------------------------------------------------
  free energy    TOTEN  =     -2213.60497352 eV

  energy without entropy =    -2213.34280633  energy(sigma->0) =    -2213.51758445


--------------------------------------------------------------------------------------------------------




--------------------------------------- Iteration      1(  14)  ---------------------------------------


    POTLOK:  cpu time    0.3040: real time    0.3075
    SETDIJ:  cpu time    3.0760: real time    3.0760
     EDDAV:  cpu time 3131.2720: real time 3131.8442
       DOS:  cpu time    0.2280: real time    0.2273
    CHARGE:  cpu time   77.0640: real time   77.0804
    MIXING:  cpu time    0.0280: real time    0.0285
    --------------------------------------------
      LOOP:  cpu time 3211.9720: real time 3212.5640

 eigenvalue-minimisations  :189176
 total energy-change (2. order) :-0.2849050E+01  (-0.5462945E+01)
 number of electron    1664.0000008 magnetization     136.1234293
 augmentation part       32.1193802 magnetization      93.2523372

 Broyden mixing:
  rms(total) = 0.96103E+01    rms(broyden)= 0.96101E+01
  rms(prec ) = 0.12624E+02
  weight for this iteration     100.00

 eigenvalues of (default mixing * dielectric matrix)
  average eigenvalue GAMMA=   0.4904
  2.3752  0.8987  0.5804  0.1885  0.1173  0.0704  0.0704  0.0565  0.0565

 Free energy of the ion-electron system (eV)
  ---------------------------------------------------
  alpha Z        PSCENC =      9858.96941913
  Ewald energy   TEWEN  =   -133586.84253709
  -Hartree energ DENC   =    -24760.87505393
  -exchange      EXHF   =         0.00000000
  -V(xc)+E(xc)   XCENC  =      6080.01092434
  PAW double counting   =    173114.29051718  -172074.08110257
  entropy T*S    EENTRO =         0.16612183
  eigenvalues    EBANDS =     -6285.45727489
  atomic energy  EATOM  =    145437.36496220
  Solvation  Ediel_sol  =         0.00000000
  ---------------------------------------------------
  free energy    TOTEN  =     -2216.45402380 eV

  energy without entropy =    -2216.62014563  energy(sigma->0) =    -2216.50939775


--------------------------------------------------------------------------------------------------------




--------------------------------------- Iteration      1(  15)  ---------------------------------------


    POTLOK:  cpu time    0.3040: real time    0.3074
    SETDIJ:  cpu time    3.0800: real time    3.0788
     EDDAV:  cpu time 3124.3920: real time 3124.9552
       DOS:  cpu time    0.2280: real time    0.2278
    CHARGE:  cpu time   77.0160: real time   77.0274
    MIXING:  cpu time    0.0280: real time    0.0297
    --------------------------------------------
      LOOP:  cpu time 3205.0480: real time 3205.6262

 eigenvalue-minimisations  :188568
 total energy-change (2. order) : 0.1403124E+02  (-0.2176959E+01)
 number of electron    1664.0000008 magnetization     135.3395743
 augmentation part       30.8137783 magnetization      91.2341157

 Broyden mixing:
  rms(total) = 0.54652E+01    rms(broyden)= 0.54649E+01
  rms(prec ) = 0.69777E+01
  weight for this iteration     100.00
[...]
   19        1.251   2.821   0.005   0.000   4.077
   20        1.251   2.821   0.005   0.000   4.077
   21        1.251   2.821   0.005   0.000   4.077
   22        1.251   2.821   0.005   0.000   4.077
   23        1.251   2.821   0.005   0.000   4.077
   24        1.251   2.821   0.005   0.000   4.077
   25        1.251   2.821   0.005   0.000   4.077
   26        1.251   2.821   0.005   0.000   4.077
   27        1.251   2.821   0.005   0.000   4.077
   28        1.251   2.821   0.005   0.000   4.077
   29        1.251   2.821   0.005   0.000   4.077
   30        1.251   2.821   0.005   0.000   4.077
   31        1.251   2.821   0.005   0.000   4.077
   32        1.251   2.821   0.005   0.000   4.077
   33        1.251   2.821   0.005   0.000   4.077
   34        1.251   2.821   0.005   0.000   4.077
   35        1.251   2.821   0.005   0.000   4.077
   36        1.251   2.821   0.005   0.000   4.077
   37        1.251   2.821   0.005   0.000   4.077
   38        1.251   2.821   0.005   0.000   4.077
   39        1.251   2.821   0.005   0.000   4.077
   40        1.251   2.821   0.005   0.000   4.077
   41        1.251   2.821   0.005   0.000   4.077
   42        1.251   2.821   0.005   0.000   4.077
   43        1.251   2.821   0.005   0.000   4.077
   44        1.251   2.821   0.005   0.000   4.077
   45        1.251   2.821   0.005   0.000   4.077
   46        1.251   2.821   0.005   0.000   4.077
   47        1.251   2.821   0.005   0.000   4.077
   48        1.251   2.821   0.005   0.000   4.077
   49        1.251   2.821   0.005   0.000   4.077
   50        1.251   2.821   0.005   0.000   4.077
   51        1.251   2.821   0.005   0.000   4.077
   52        1.251   2.821   0.005   0.000   4.077
   53        1.251   2.821   0.005   0.000   4.077
   54        1.251   2.821   0.005   0.000   4.077
   55        1.251   2.821   0.005   0.000   4.077
   56        1.251   2.821   0.005   0.000   4.077
   57        1.251   2.821   0.005   0.000   4.077
   58        1.251   2.821   0.005   0.000   4.077
   59        1.251   2.821   0.005   0.000   4.077
   60        1.251   2.821   0.005   0.000   4.077
   61        1.251   2.821   0.005   0.000   4.077
   62        1.251   2.821   0.005   0.000   4.077
   63        1.251   2.821   0.005   0.000   4.077
   64        1.251   2.821   0.005   0.000   4.077
   65        1.251   2.821   0.005   0.000   4.077
   66        1.251   2.821   0.005   0.000   4.077
   67        1.251   2.821   0.005   0.000   4.077
   68        1.251   2.821   0.005   0.000   4.077
   69        1.251   2.821   0.005   0.000   4.077
   70        1.251   2.821   0.005   0.000   4.077
   71        1.251   2.821   0.005   0.000   4.077
   72        1.251   2.821   0.005   0.000   4.077
   73        1.251   2.821   0.005   0.000   4.077
   74        1.251   2.821   0.005   0.000   4.077
   75        1.251   2.821   0.005   0.000   4.077
   76        1.251   2.821   0.005   0.000   4.077
   77        1.251   2.821   0.005   0.000   4.077
   78        1.251   2.821   0.005   0.000   4.077
   79        1.251   2.821   0.005   0.000   4.077
   80        1.251   2.821   0.005   0.000   4.077
   81        1.251   2.821   0.005   0.000   4.077
   82        1.251   2.821   0.005   0.000   4.077
   83        1.251   2.821   0.005   0.000   4.077
   84        1.251   2.821   0.005   0.000   4.077
   85        1.251   2.821   0.005   0.000   4.077
   86        1.251   2.821   0.005   0.000   4.077
   87        1.251   2.821   0.005   0.000   4.077
   88        1.251   2.821   0.005   0.000   4.077
   89        1.251   2.821   0.005   0.000   4.077
   90        1.251   2.821   0.005   0.000   4.077
   91        1.251   2.821   0.005   0.000   4.077
   92        1.251   2.821   0.005   0.000   4.077
   93        1.251   2.821   0.005   0.000   4.077
   94        1.251   2.821   0.005   0.000   4.077
   95        1.251   2.821   0.005   0.000   4.077
   96        1.251   2.821   0.005   0.000   4.077
   97        1.251   2.821   0.005   0.000   4.077
   98        1.251   2.821   0.005   0.000   4.077
   99        1.251   2.821   0.005   0.000   4.077
  100        1.251   2.821   0.005   0.000   4.077
  101        1.251   2.821   0.005   0.000   4.077
  102        1.251   2.821   0.005   0.000   4.077
  103        1.251   2.821   0.005   0.000   4.077
  104        1.251   2.821   0.005   0.000   4.077
  105        1.251   2.821   0.005   0.000   4.077
  106        1.251   2.821   0.005   0.000   4.077
  107        1.251   2.821   0.005   0.000   4.077
  108        1.251   2.821   0.005   0.000   4.077
  109        1.251   2.821   0.005   0.000   4.077
  110        1.251   2.821   0.005   0.000   4.077
  111        1.251   2.821   0.005   0.000   4.077
  112        1.251   2.821   0.005   0.000   4.077
  113        1.251   2.821   0.005   0.000   4.077
  114        1.251   2.821   0.005   0.000   4.077
  115        1.251   2.821   0.005   0.000   4.077
  116        1.251   2.821   0.005   0.000   4.077
  117        1.251   2.821   0.005   0.000   4.077
  118        1.251   2.821   0.005   0.000   4.077
  119        1.251   2.821   0.005   0.000   4.077
  120        1.251   2.821   0.005   0.000   4.077
  121        1.251   2.821   0.005   0.000   4.077
  122        1.251   2.821   0.005   0.000   4.077
  123        1.251   2.821   0.005   0.000   4.077
  124        1.251   2.821   0.005   0.000   4.077
  125        1.251   2.821   0.005   0.000   4.077
  126        1.251   2.821   0.005   0.000   4.077
  127        1.251   2.821   0.005   0.000   4.077
  128        1.251   2.821   0.005   0.000   4.077
  129        1.999   5.368   0.620   2.439  10.427
  130        2.000   5.369   0.623   2.436  10.428
  131        2.000   5.369   0.622   2.436  10.426
  132        2.000   5.369   0.622   2.436  10.427
  133        2.000   5.369   0.622   2.435  10.425
  134        2.000   5.369   0.622   2.436  10.426
  135        2.000   5.369   0.622   2.436  10.427
  136        2.000   5.369   0.622   2.437  10.427
  137        2.000   5.369   0.622   2.436  10.427
  138        2.000   5.369   0.622   2.437  10.427
  139        2.000   5.369   0.622   2.435  10.426
  140        2.000   5.369   0.622   2.437  10.427
  141        2.000   5.369   0.622   2.436  10.426
  142        2.000   5.369   0.622   2.436  10.426
  143        2.000   5.369   0.622   2.436  10.426
  144        2.000   5.369   0.622   2.436  10.426
  145        2.000   5.369   0.622   2.435  10.425
  146        2.000   5.369   0.622   2.436  10.426
  147        2.000   5.369   0.622   2.436  10.427
  148        2.000   5.369   0.622   2.437  10.427
  149        2.000   5.369   0.622   2.435  10.425
  150        2.000   5.369   0.622   2.436  10.426
  151        2.000   5.369   0.622   2.435  10.425
  152        2.000   5.369   0.622   2.436  10.426
  153        2.000   5.369   0.622   2.436  10.426
  154        2.000   5.369   0.622   2.436  10.427
  155        2.000   5.369   0.622   2.436  10.427
  156        2.000   5.369   0.622   2.436  10.427
  157        2.000   5.369   0.622   2.437  10.427
  158        2.000   5.369   0.622   2.436  10.427
  159        2.000   5.369   0.622   2.436  10.426
  160        2.000   5.369   0.622   2.436  10.427
  161        2.000   5.369   0.622   2.436  10.427
  162        2.000   5.369   0.622   2.437  10.427
  163        2.000   5.369   0.622   2.435  10.426
  164        2.000   5.369   0.622   2.437  10.427
  165        2.000   5.369   0.622   2.436  10.427
  166        2.000   5.369   0.622   2.436  10.427
  167        2.000   5.369   0.622   2.436  10.427
  168        2.000   5.369   0.622   2.436  10.427
  169        2.000   5.369   0.622   2.436  10.426
  170        2.000   5.369   0.622   2.438  10.428
  171        2.000   5.369   0.622   2.437  10.427
  172        2.000   5.369   0.622   2.436  10.426
  173        2.000   5.369   0.622   2.437  10.427
  174        2.000   5.369   0.622   2.436  10.426
  175        2.000   5.369   0.622   2.435  10.425
  176        2.000   5.369   0.622   2.436  10.426
  177        2.000   5.369   0.622   2.436  10.426
  178        2.000   5.369   0.622   2.436  10.426
  179        2.000   5.369   0.622   2.436  10.426
  180        2.000   5.369   0.622   2.436  10.426
  181        2.000   5.369   0.622   2.437  10.427
  182        2.000   5.369   0.622   2.436  10.427
  183        2.000   5.369   0.622   2.436  10.426
  184        2.000   5.369   0.622   2.436  10.427
  185        2.000   5.369   0.622   2.437  10.427
  186        2.000   5.369   0.622   2.436  10.426
  187        2.000   5.369   0.622   2.435  10.425
  188        2.000   5.369   0.622   2.436  10.426
  189        2.000   5.369   0.622   2.437  10.427
  190        2.000   5.369   0.622   2.435  10.425
  191        2.000   5.369   0.622   2.437  10.427
  192        2.000   5.369   0.622   2.435  10.425
--------------------------------------------------
tot         288.06  704.72   40.37  155.97 1189.12

 
magnetization (x)
 
# of ion       s       p       d       f       tot
--------------------------------------------------
    1       -0.003  -0.041   0.002   0.000  -0.043
    2       -0.003  -0.041   0.002   0.000  -0.043
    3       -0.003  -0.041   0.002   0.000  -0.043
    4       -0.003  -0.041   0.002   0.000  -0.043
    5       -0.003  -0.041   0.002   0.000  -0.043
    6       -0.003  -0.041   0.002   0.000  -0.043
    7       -0.003  -0.041   0.002   0.000  -0.043
    8       -0.003  -0.041   0.002   0.000  -0.043
    9       -0.003  -0.041   0.002   0.000  -0.043
   10       -0.003  -0.041   0.002   0.000  -0.043
   11       -0.003  -0.041   0.002   0.000  -0.043
   12       -0.003  -0.041   0.002   0.000  -0.043
   13       -0.003  -0.041   0.002   0.000  -0.043
   14       -0.003  -0.041   0.002   0.000  -0.043
   15       -0.003  -0.041   0.002   0.000  -0.043
   16       -0.003  -0.041   0.002   0.000  -0.043
   17       -0.003  -0.041   0.002   0.000  -0.043
   18       -0.003  -0.041   0.002   0.000  -0.043
   19       -0.003  -0.041   0.002   0.000  -0.043
   20       -0.003  -0.041   0.002   0.000  -0.043
   21       -0.003  -0.041   0.002   0.000  -0.043
   22       -0.003  -0.041   0.002   0.000  -0.043
   23       -0.003  -0.041   0.002   0.000  -0.043
   24       -0.003  -0.041   0.002   0.000  -0.043
   25       -0.003  -0.041   0.002   0.000  -0.043
   26       -0.003  -0.041   0.002   0.000  -0.043
   27       -0.003  -0.041   0.002   0.000  -0.043
   28       -0.003  -0.041   0.002   0.000  -0.043
   29       -0.003  -0.041   0.002   0.000  -0.043
   30       -0.003  -0.041   0.002   0.000  -0.043
   31       -0.003  -0.041   0.002   0.000  -0.043
   32       -0.003  -0.041   0.002   0.000  -0.043
   33       -0.003  -0.041   0.002   0.000  -0.043
   34       -0.003  -0.041   0.002   0.000  -0.043
   35       -0.003  -0.041   0.002   0.000  -0.043
   36       -0.003  -0.041   0.002   0.000  -0.043
   37       -0.003  -0.041   0.002   0.000  -0.043
   38       -0.003  -0.041   0.002   0.000  -0.043
   39       -0.003  -0.041   0.002   0.000  -0.043
   40       -0.003  -0.041   0.002   0.000  -0.043
   41       -0.003  -0.041   0.002   0.000  -0.043
   42       -0.003  -0.041   0.002   0.000  -0.043
   43       -0.003  -0.041   0.002   0.000  -0.043
   44       -0.003  -0.041   0.002   0.000  -0.043
   45       -0.003  -0.041   0.002   0.000  -0.043
   46       -0.003  -0.041   0.002   0.000  -0.043
   47       -0.003  -0.041   0.002   0.000  -0.043
   48       -0.003  -0.041   0.002   0.000  -0.043
   49       -0.003  -0.041   0.002   0.000  -0.043
   50       -0.003  -0.041   0.002   0.000  -0.043
   51       -0.003  -0.041   0.002   0.000  -0.043
   52       -0.003  -0.041   0.002   0.000  -0.043
   53       -0.003  -0.041   0.002   0.000  -0.043
   54       -0.003  -0.041   0.002   0.000  -0.043
   55       -0.003  -0.041   0.002   0.000  -0.043
   56       -0.003  -0.041   0.002   0.000  -0.043
   57       -0.003  -0.041   0.002   0.000  -0.043
   58       -0.003  -0.041   0.002   0.000  -0.043
   59       -0.003  -0.041   0.002   0.000  -0.043
   60       -0.003  -0.041   0.002   0.000  -0.043
   61       -0.003  -0.041   0.002   0.000  -0.043
   62       -0.003  -0.041   0.002   0.000  -0.043
   63       -0.003  -0.041   0.002   0.000  -0.043
   64       -0.003  -0.041   0.002   0.000  -0.043
   65       -0.003  -0.041   0.002   0.000  -0.043
   66       -0.003  -0.041   0.002   0.000  -0.043
   67       -0.003  -0.041   0.002   0.000  -0.043
   68       -0.003  -0.041   0.002   0.000  -0.043
   69       -0.003  -0.041   0.002   0.000  -0.043
   70       -0.003  -0.041   0.002   0.000  -0.043
   71       -0.003  -0.041   0.002   0.000  -0.043
   72       -0.003  -0.041   0.002   0.000  -0.043
   73       -0.003  -0.041   0.002   0.000  -0.043
   74       -0.003  -0.041   0.002   0.000  -0.043
   75       -0.003  -0.041   0.002   0.000  -0.043
   76       -0.003  -0.041   0.002   0.000  -0.043
   77       -0.003  -0.041   0.002   0.000  -0.043
   78       -0.003  -0.041   0.002   0.000  -0.043
   79       -0.003  -0.041   0.002   0.000  -0.043
   80       -0.003  -0.041   0.002   0.000  -0.043
   81       -0.003  -0.041   0.002   0.000  -0.043
   82       -0.003  -0.041   0.002   0.000  -0.043
   83       -0.003  -0.041   0.002   0.000  -0.043
   84       -0.003  -0.041   0.002   0.000  -0.043
   85       -0.003  -0.041   0.002   0.000  -0.043
   86       -0.003  -0.041   0.002   0.000  -0.043
   87       -0.003  -0.041   0.002   0.000  -0.043
   88       -0.003  -0.041   0.002   0.000  -0.043
   89       -0.003  -0.041   0.002   0.000  -0.043
   90       -0.003  -0.041   0.002   0.000  -0.043
   91       -0.003  -0.041   0.002   0.000  -0.043
   92       -0.003  -0.041   0.002   0.000  -0.043
   93       -0.003  -0.041   0.002   0.000  -0.043
   94       -0.003  -0.041   0.002   0.000  -0.043
   95       -0.003  -0.041   0.002   0.000  -0.043
   96       -0.003  -0.041   0.002   0.000  -0.043
   97       -0.003  -0.041   0.002   0.000  -0.043
   98       -0.003  -0.041   0.002   0.000  -0.043
   99       -0.003  -0.041   0.002   0.000  -0.043
  100       -0.003  -0.041   0.002   0.000  -0.043
  101       -0.003  -0.041   0.002   0.000  -0.043
  102       -0.003  -0.041   0.002   0.000  -0.043
  103       -0.003  -0.041   0.002   0.000  -0.043
  104       -0.003  -0.041   0.002   0.000  -0.043
  105       -0.003  -0.041   0.002   0.000  -0.043
  106       -0.003  -0.041   0.002   0.000  -0.043
  107       -0.003  -0.041   0.002   0.000  -0.043
  108       -0.003  -0.041   0.002   0.000  -0.043
  109       -0.003  -0.041   0.002   0.000  -0.043
  110       -0.003  -0.041   0.002   0.000  -0.043
  111       -0.003  -0.041   0.002   0.000  -0.043
  112       -0.003  -0.041   0.002   0.000  -0.043
  113       -0.003  -0.041   0.002   0.000  -0.043
  114       -0.003  -0.041   0.002   0.000  -0.043
  115       -0.003  -0.041   0.002   0.000  -0.043
  116       -0.003  -0.041   0.002   0.000  -0.043
  117       -0.003  -0.041   0.002   0.000  -0.043
  118       -0.003  -0.041   0.002   0.000  -0.043
  119       -0.003  -0.041   0.002   0.000  -0.043
  120       -0.003  -0.041   0.002   0.000  -0.043
  121       -0.003  -0.041   0.002   0.000  -0.043
  122       -0.003  -0.041   0.002   0.000  -0.043
  123       -0.003  -0.041   0.002   0.000  -0.043
  124       -0.003  -0.041   0.002   0.000  -0.043
  125       -0.003  -0.041   0.002   0.000  -0.043
  126       -0.003  -0.041   0.002   0.000  -0.043
  127       -0.003  -0.041   0.002   0.000  -0.043
  128       -0.003  -0.041   0.002   0.000  -0.043
  129        0.007   0.008   0.036   1.838   1.888
  130        0.007   0.008   0.035   1.830   1.880
  131        0.007   0.008   0.035   1.833   1.883
  132        0.007   0.008   0.035   1.833   1.883
  133        0.007   0.008   0.035   1.832   1.882
  134        0.007   0.008   0.035   1.833   1.883
  135        0.007   0.008   0.035   1.833   1.883
  136        0.007   0.008   0.035   1.833   1.884
  137        0.007   0.008   0.035   1.833   1.883
  138        0.007   0.008   0.035   1.834   1.884
  139        0.007   0.008   0.035   1.832   1.882
  140        0.007   0.008   0.035   1.834   1.884
  141        0.007   0.008   0.035   1.832   1.882
  142        0.007   0.008   0.035   1.833   1.883
  143        0.007   0.008   0.035   1.833   1.883
  144        0.007   0.008   0.035   1.833   1.883
  145        0.007   0.008   0.035   1.832   1.882
  146        0.007   0.008   0.035   1.833   1.883
  147        0.007   0.008   0.035   1.833   1.883
  148        0.007   0.008   0.035   1.833   1.884
  149        0.007   0.008   0.035   1.832   1.882
  150        0.007   0.008   0.035   1.833   1.883
  151        0.007   0.008   0.035   1.832   1.882
  152        0.007   0.008   0.035   1.832   1.883
  153        0.007   0.008   0.035   1.833   1.883
  154        0.007   0.008   0.035   1.833   1.883
  155        0.007   0.008   0.035   1.833   1.883
  156        0.007   0.008   0.035   1.833   1.883
  157        0.007   0.008   0.035   1.834   1.884
  158        0.007   0.008   0.035   1.833   1.883
  159        0.007   0.008   0.035   1.833   1.883
  160        0.007   0.008   0.035   1.833   1.883
  161        0.007   0.008   0.035   1.833   1.883
  162        0.007   0.008   0.035   1.834   1.884
  163        0.007   0.008   0.035   1.832   1.882
  164        0.007   0.008   0.035   1.834   1.884
  165        0.007   0.008   0.035   1.833   1.883
  166        0.007   0.008   0.035   1.833   1.883
  167        0.007   0.008   0.035   1.833   1.883
  168        0.007   0.008   0.035   1.833   1.883
  169        0.007   0.008   0.035   1.833   1.883
  170        0.007   0.008   0.035   1.834   1.884
  171        0.007   0.008   0.035   1.834   1.884
  172        0.007   0.008   0.035   1.833   1.883
  173        0.007   0.008   0.035   1.833   1.883
  174        0.007   0.008   0.035   1.832   1.882
  175        0.007   0.008   0.035   1.832   1.882
  176        0.007   0.008   0.035   1.833   1.883
  177        0.007   0.008   0.035   1.832   1.882
  178        0.007   0.008   0.035   1.833   1.883
  179        0.007   0.008   0.035   1.833   1.883
  180        0.007   0.008   0.035   1.833   1.883
  181        0.007   0.008   0.035   1.834   1.884
  182        0.007   0.008   0.035   1.833   1.883
  183        0.007   0.008   0.035   1.833   1.883
  184        0.007   0.008   0.035   1.833   1.883
  185        0.007   0.008   0.035   1.833   1.883
  186        0.007   0.008   0.035   1.832   1.882
  187        0.007   0.008   0.035   1.832   1.882
  188        0.007   0.008   0.035   1.833   1.883
  189        0.007   0.008   0.035   1.834   1.884
  190        0.007   0.008   0.035   1.832   1.882
  191        0.007   0.008   0.035   1.833   1.883
  192        0.007   0.008   0.035   1.832   1.882
--------------------------------------------------
tot           0.03   -4.79    2.46  117.32  115.02

 

 total amount of memory used by VASP MPI-rank0  2614140. kBytes
=======================================================================

   base      :      30000. kBytes
   nonlr-proj:      58076. kBytes
   fftplans  :      75791. kBytes
   grid      :      45997. kBytes
   one-center:        589. kBytes
   wavefun   :    2403687. kBytes
 
  
  
 General timing and accounting informations for this job:
 ========================================================
  
                  Total CPU time used (sec):   292106.906
                            User time (sec):   291671.876
                          System time (sec):      435.016
                         Elapsed time (sec):   292305.905
  
                   Maximum memory used (kb):     3147376.
                   Average memory used (kb):           0.
  
                          Minor page faults:     11590773
                          Major page faults:            3
                 Voluntary context switches:        45217
