192
2

1
0.0100000000000000  0.0000000000000000  0.0000000000000000
 -0.068270     0.000709     0.000501
  0.002399    -0.000231    -0.000163
 -0.001427    -0.000760    -0.000537
  0.002394    -0.001364    -0.000964
 -0.000479     0.001847    -0.000988
  0.000039     0.000027     0.001685
  0.000019     0.001468    -0.000497
 -0.000414    -0.000328     0.002039
 -0.001355    -0.000820    -0.000569
  0.001270    -0.000780    -0.000521
 -0.001323    -0.000730    -0.000505
  0.001279    -0.000738    -0.000550
 -0.000461     0.002966    -0.001338
 -0.000439    -0.001415     0.002510
  0.000063     0.001458    -0.000463
  0.000003     0.000030     0.001598
 -0.000479    -0.000316     0.002071
  0.000039     0.001597    -0.000536
  0.000019     0.000021     0.001549
 -0.000414     0.001813    -0.000989
  0.001318    -0.000806    -0.000570
 -0.001288    -0.000803    -0.000568
  0.001241    -0.000793    -0.000561
 -0.001356    -0.000757    -0.000535
 -0.000011     0.000075     0.001568
 -0.000039     0.001482    -0.000554
 -0.000003    -0.000016     0.001598
 -0.000020     0.001582    -0.000582
  0.001450    -0.000781    -0.000562
 -0.001031    -0.001027    -0.000284
  0.001358    -0.000792    -0.000573
 -0.001036    -0.000610    -0.000806
 -0.001355    -0.000810    -0.000583
  0.001270    -0.000751    -0.000562
 -0.001323    -0.000720    -0.000520
  0.001279    -0.000764    -0.000512
 -0.000011     0.001504    -0.000452
 -0.000039    -0.000028     0.001582
 -0.000003     0.001502    -0.000548
 -0.000020    -0.000021     0.001686
 -0.001276    -0.000749    -0.000529
  0.001303    -0.000768    -0.000543
 -0.001334    -0.000758    -0.000536
  0.001299    -0.000717    -0.000507
 -0.000044     0.001508    -0.000484
 -0.000011     0.000019     0.001656
  0.000019     0.001479    -0.000522
 -0.000035    -0.000007     0.001576
 -0.000461    -0.000273     0.003242
 -0.000439     0.001894    -0.002171
  0.000063     0.000050     0.001529
  0.000003     0.001517    -0.000505
  0.001450    -0.000790    -0.000549
 -0.001031    -0.000610    -0.000874
  0.001358    -0.000804    -0.000556
 -0.001036    -0.000963    -0.000307
 -0.000044     0.000046     0.001583
 -0.000011     0.001568    -0.000534
  0.000019     0.000001     0.001569
 -0.000035     0.001484    -0.000532
  0.001253    -0.000738    -0.000522
 -0.001340    -0.000816    -0.000577
  0.001238    -0.000850    -0.000601
 -0.001234    -0.000761    -0.000538
  0.001089     0.000850     0.000601
 -0.001324     0.000793     0.000561
  0.001010     0.000732     0.000518
 -0.003993     0.000694     0.000491
  0.000030    -0.001574     0.000551
  0.000000    -0.000051    -0.001576
  0.000016    -0.001512     0.000498
 -0.000002    -0.000014    -0.001588
  0.000987     0.000770     0.000588
 -0.001311     0.000784     0.000566
  0.001385     0.000784     0.000541
 -0.001318     0.000807     0.000559
  0.008636    -0.008173     0.009318
  0.000034    -0.000028    -0.001579
  0.000014    -0.001573     0.000528
  0.008582     0.006437    -0.010245
  0.000030    -0.000005    -0.001668
  0.000000    -0.001503     0.000477
  0.000016    -0.000035    -0.001591
 -0.000002    -0.001501     0.000516
 -0.001296     0.000727     0.000514
  0.001294     0.000757     0.000535
 -0.001326     0.000743     0.000526
  0.001303     0.000741     0.000524
 -0.000045    -0.000003    -0.001631
  0.000013    -0.001536     0.000527
  0.000041     0.000026    -0.001693
 -0.000040    -0.001501     0.000483
 -0.001305     0.000784     0.000570
  0.001265     0.000748     0.000525
 -0.001286     0.000703     0.000533
  0.001547     0.000749     0.000505
  0.000987     0.000811     0.000530
 -0.001311     0.000795     0.000551
  0.001385     0.000771     0.000559
 -0.001318     0.000796     0.000574
 -0.000045    -0.001539     0.000541
  0.000013    -0.000016    -0.001624
  0.000041    -0.001587     0.000589
 -0.000040    -0.000045    -0.001576
  0.001314     0.000814     0.000575
 -0.001338     0.000791     0.000559
  0.001299     0.000727     0.000514
 -0.001241     0.000774     0.000548
 -0.000036    -0.001537     0.000532
 -0.000014    -0.000079    -0.001596
  0.000001    -0.001480     0.000593
 -0.000058    -0.000065    -0.001655
  0.008636     0.006061    -0.010812
  0.000034    -0.001498     0.000500
  0.000014    -0.000026    -0.001659
  0.008582    -0.007513     0.009484
 -0.001305     0.000799     0.000549
  0.001265     0.000744     0.000530
 -0.001286     0.000737     0.000485
  0.001547     0.000726     0.000538
 -0.000036    -0.000011    -0.001626
 -0.000014    -0.001532     0.000458
  0.000001     0.000066    -0.001593
 -0.000058    -0.001582     0.000491
 -0.003156     0.000823     0.000582
  0.004777    -0.001102    -0.000780
 -0.001464     0.000730     0.000517
  0.004844     0.002661     0.001882
  0.004190    -0.004321    -0.003055
  0.005052     0.003720     0.002630
  0.000237     0.000040     0.000028
  0.000320     0.000200     0.000141
  0.011539     0.000010    -0.000472
 -0.000888    -0.001115    -0.000936
 -0.000104    -0.000185     0.000006
 -0.001068     0.000699     0.000709
  0.000177     0.000519    -0.000097
 -0.000043    -0.000188     0.000333
  0.000087     0.000136     0.000018
  0.000279    -0.000287     0.000083
 -0.000023    -0.000069     0.000270
  0.000649     0.000261     0.000163
 -0.000067     0.000170     0.000016
 -0.000103    -0.000088     0.000080
  0.011539    -0.000442     0.000167
 -0.000888    -0.001254    -0.000739
 -0.000104    -0.000056    -0.000176
 -0.001068     0.000901     0.000423
  0.000219     0.000262     0.000186
 -0.000039    -0.000100    -0.000071
 -0.000189     0.000075     0.000053
 -0.000233     0.000140     0.000099
  0.000129     0.000123    -0.000010
 -0.000016     0.000221     0.000173
  0.000088     0.000251     0.000233
 -0.000152     0.000170    -0.000023
  0.000370    -0.001562     0.000604
  0.000331     0.001385    -0.000653
 -0.000128    -0.000048    -0.000084
 -0.000053    -0.000057    -0.000136
  0.000177     0.000082     0.000522
 -0.000043     0.000252    -0.000288
  0.000087     0.000063     0.000123
  0.000279    -0.000017    -0.000298
  0.000129     0.000032     0.000119
 -0.000016     0.000237     0.000150
  0.000088     0.000303     0.000159
 -0.000152     0.000036     0.000168
  0.000312    -0.000037    -0.000026
  0.000014    -0.000118    -0.000083
 -0.000261    -0.000285    -0.000201
 -0.000073    -0.000279    -0.000197
  0.000049    -0.000189     0.000031
 -0.000301    -0.000139    -0.000291
 -0.000007    -0.000035    -0.000206
  0.000190     0.000058    -0.000088
 -0.000023     0.000232    -0.000156
  0.000649     0.000241     0.000192
 -0.000067     0.000072     0.000155
 -0.000103     0.000046    -0.000109
  0.000370     0.000048    -0.001674
  0.000331    -0.000154     0.001524
 -0.000128    -0.000095    -0.000017
 -0.000053    -0.000147    -0.000009
  0.000049    -0.000034    -0.000188
 -0.000301    -0.000321    -0.000034
 -0.000007    -0.000206     0.000036
  0.000190    -0.000063     0.000084
 -0.000216    -0.000138    -0.000098
  0.000052     0.000074     0.000052
  0.000093     0.000212     0.000150
  0.000069     0.000039     0.000028

129
0.0100000000000000  0.0000000000000000  0.0000000000000000
  0.003765    -0.004554    -0.003220
  0.001721    -0.000899    -0.000636
 -0.001056    -0.000423    -0.000299
  0.005475     0.003751     0.002653
  0.000035     0.001687    -0.000551
 -0.000147     0.000008     0.001667
  0.000030     0.001320    -0.000541
  0.000620    -0.000016     0.001631
 -0.001105    -0.000681    -0.000347
  0.001529    -0.000709    -0.000709
 -0.001263    -0.000682    -0.000564
  0.001386    -0.000757    -0.000524
  0.011779     0.001476    -0.000559
 -0.001114     0.000923     0.000554
  0.000003     0.001550    -0.000487
 -0.001145    -0.000999     0.002778
  0.000035     0.000043     0.001774
 -0.000147     0.001574    -0.000548
  0.000030    -0.000070     0.001425
  0.000620     0.001532    -0.000559
  0.001296    -0.000794    -0.000562
 -0.001388    -0.000670    -0.000474
  0.001424    -0.000616    -0.000436
 -0.001274    -0.000905    -0.000640
 -0.000093    -0.000005     0.001586
  0.000010     0.001606    -0.000630
  0.000006     0.000056     0.001500
  0.000011     0.001505    -0.000567
  0.001762    -0.000665    -0.000277
 -0.001425    -0.000678    -0.000689
  0.001144    -0.000846    -0.000470
 -0.000955    -0.000875    -0.000796
 -0.001105    -0.000554    -0.000526
  0.001529    -0.000905    -0.000432
 -0.001263    -0.000759    -0.000455
  0.001386    -0.000746    -0.000539
 -0.000093     0.001493    -0.000533
  0.000010    -0.000059     0.001724
  0.000006     0.001433    -0.000447
  0.000011    -0.000033     0.001607
 -0.001380    -0.000739    -0.000522
  0.001278    -0.000720    -0.000509
 -0.001291    -0.000747    -0.000528
  0.001324    -0.000821    -0.000581
 -0.000035     0.001455    -0.000581
 -0.000025    -0.000023     0.001641
 -0.000003     0.001424    -0.000632
  0.000060    -0.000114     0.001663
  0.011779    -0.000035     0.001578
 -0.001114     0.000830     0.000686
  0.000003     0.000058     0.001623
 -0.001145     0.002286    -0.001868
  0.001762    -0.000483    -0.000535
 -0.001425    -0.000876    -0.000409
  0.001144    -0.000725    -0.000642
 -0.000955    -0.001042    -0.000560
 -0.000035    -0.000063     0.001565
 -0.000025     0.001540    -0.000569
 -0.000003    -0.000121     0.001554
  0.000060     0.001529    -0.000662
  0.001322    -0.002592    -0.001833
 -0.001413     0.001106     0.000782
  0.001313    -0.000657    -0.000465
 -0.001525    -0.000927    -0.000655
  0.001220     0.000665     0.000470
 -0.001487     0.000886     0.000627
  0.001398     0.002554     0.001806
 -0.001283    -0.001004    -0.000710
  0.000072    -0.001522     0.000584
  0.000020     0.000066    -0.001610
  0.000032    -0.001509     0.000602
  0.000015     0.000044    -0.001522
  0.001767     0.000476     0.000465
 -0.001429     0.000917     0.000456
  0.001156     0.000762     0.000671
 -0.000935     0.001032     0.000579
 -0.001082    -0.000818    -0.000682
 -0.000035     0.000003    -0.001579
 -0.001103    -0.002228     0.001899
  0.011717     0.000019    -0.001578
  0.000072     0.000043    -0.001630
  0.000020    -0.001496     0.000598
  0.000032     0.000065    -0.001624
  0.000015    -0.001420     0.000548
 -0.001356     0.000722     0.000510
  0.001331     0.000752     0.000532
 -0.001247     0.000759     0.000536
  0.001329     0.000797     0.000564
 -0.000017     0.000057    -0.001728
 -0.000000    -0.001411     0.000452
  0.000039     0.000032    -0.001622
 -0.000063    -0.001524     0.000535
 -0.001285     0.000755     0.000441
  0.001350     0.000736     0.000534
 -0.001101     0.000528     0.000483
  0.001547     0.000883     0.000478
  0.001767     0.000597     0.000294
 -0.001429     0.000735     0.000713
  0.001156     0.000887     0.000495
 -0.000935     0.000890     0.000780
 -0.000017    -0.001610     0.000630
 -0.000000    -0.000044    -0.001481
  0.000039    -0.001519     0.000571
 -0.000063    -0.000004    -0.001615
  0.001346     0.000598     0.000423
 -0.001377     0.000841     0.000595
  0.001430     0.000741     0.000524
 -0.001414     0.000666     0.000471
  0.000635    -0.001582     0.000535
 -0.000039     0.000030    -0.001800
 -0.000155    -0.001616     0.000580
 -0.000040     0.000023    -0.001416
 -0.001082    -0.000916    -0.000544
 -0.000035    -0.001488     0.000529
 -0.001103     0.001047    -0.002734
  0.011717    -0.001481     0.000544
 -0.001285     0.000667     0.000565
  0.001350     0.000748     0.000516
 -0.001101     0.000631     0.000337
  0.001547     0.000745     0.000674
  0.000635    -0.000023    -0.001670
 -0.000039    -0.001687     0.000629
 -0.000155     0.000008    -0.001716
 -0.000040    -0.001327     0.000494
  0.003703     0.004498     0.003180
  0.001674     0.000968     0.000685
 -0.001088     0.000479     0.000339
  0.005434    -0.003728    -0.002636
 -0.121219     0.000026     0.000019
  0.027830     0.000180     0.000127
 -0.000138     0.000021     0.000015
  0.027886    -0.000093    -0.000066
 -0.000056     0.015994    -0.005651
  0.000364     0.000336     0.000413
  0.000568    -0.000214    -0.000480
  0.000161    -0.016208     0.005230
 -0.000229    -0.000321     0.000417
  0.000207     0.000069     0.000174
 -0.000139     0.000330    -0.000288
  0.000082     0.000008    -0.000135
  0.000093     0.016348    -0.005190
 -0.000103    -0.016178     0.005630
  0.000461    -0.000545    -0.000330
  0.000455     0.000425     0.000404
 -0.000056     0.000004     0.016963
  0.000364     0.000502     0.000179
  0.000568    -0.000524    -0.000042
  0.000161    -0.000472    -0.017024
  0.000618     0.000401     0.000283
 -0.000269     0.000269     0.000190
  0.000389    -0.000149    -0.000105
 -0.000651    -0.000047    -0.000033
  0.000003     0.000079     0.000126
 -0.000124     0.000276    -0.000035
 -0.000020     0.000262     0.000074
  0.000118     0.000217     0.000006
 -0.000181     0.000036    -0.000213
 -0.000477    -0.000550     0.000811
  0.000263    -0.000047     0.000083
 -0.000114     0.000542    -0.000941
 -0.000229     0.000286    -0.000442
  0.000207     0.000187     0.000007
 -0.000139    -0.000161     0.000407
  0.000082    -0.000125     0.000053
  0.000003     0.000145     0.000032
 -0.000124     0.000058     0.000272
 -0.000020     0.000157     0.000222
  0.000118     0.000078     0.000203
  0.000126    -0.000163    -0.000115
 -0.000091    -0.000129    -0.000091
 -0.000013    -0.000032    -0.000022
 -0.000090    -0.000105    -0.000074
 -0.000319    -0.000162    -0.000354
  0.000099    -0.000246    -0.000329
  0.000152     0.000009    -0.000031
 -0.000090     0.000014    -0.000047
  0.000093     0.000557     0.017143
 -0.000103    -0.000084    -0.017130
  0.000461    -0.000492    -0.000404
  0.000455     0.000522     0.000266
 -0.000181    -0.000189     0.000105
 -0.000477     0.000581    -0.000788
  0.000263     0.000063    -0.000072
 -0.000114    -0.000707     0.000825
 -0.000319    -0.000388    -0.000035
  0.000099    -0.000392    -0.000122
  0.000152    -0.000027     0.000019
 -0.000090    -0.000040     0.000029
  0.000188     0.000379     0.000268
 -0.000617     0.000052     0.000037
  0.000389    -0.000486    -0.000344
 -0.000145    -0.000132    -0.000093

