natom:  192
displacements:
- atom:    1
  direction:
    [   1.0000000000000000,  0.0000000000000000,  0.0000000000000000 ]
  displacement:
    [   0.0100000000000000,  0.0000000000000000,  0.0000000000000000 ]
- atom:  129
  direction:
    [   1.0000000000000000,  0.0000000000000000,  0.0000000000000000 ]
  displacement:
    [   0.0100000000000000,  0.0000000000000000,  0.0000000000000000 ]
lattice:
- [    15.382394359999999,     0.000000000000000,     0.000000000000000 ] # a
- [     7.691197160000000,    13.321544279999999,     0.000000000000000 ] # b
- [     7.691197160000000,     4.440514760000000,    12.559672400000000 ] # c
points:
- symbol: H  # 1
  coordinates: [  0.062500000000000,  0.062500000000000,  0.062500000000000 ]
  mass: 1.007940
- symbol: H  # 2
  coordinates: [  0.312500000000000,  0.062500000000000,  0.062500000000000 ]
  mass: 1.007940
- symbol: H  # 3
  coordinates: [  0.562500000000000,  0.062500000000000,  0.062500000000000 ]
  mass: 1.007940
- symbol: H  # 4
  coordinates: [  0.812500000000000,  0.062500000000000,  0.062500000000000 ]
  mass: 1.007940
- symbol: H  # 5
  coordinates: [  0.062500000000000,  0.312500000000000,  0.062500000000000 ]
  mass: 1.007940
- symbol: H  # 6
  coordinates: [  0.312500000000000,  0.312500000000000,  0.062500000000000 ]
  mass: 1.007940
- symbol: H  # 7
  coordinates: [  0.562500000000000,  0.312500000000000,  0.062500000000000 ]
  mass: 1.007940
- symbol: H  # 8
  coordinates: [  0.812500000000000,  0.312500000000000,  0.062500000000000 ]
  mass: 1.007940
- symbol: H  # 9
  coordinates: [  0.062500000000000,  0.562500000000000,  0.062500000000000 ]
  mass: 1.007940
- symbol: H  # 10
  coordinates: [  0.312500000000000,  0.562500000000000,  0.062500000000000 ]
  mass: 1.007940
- symbol: H  # 11
  coordinates: [  0.562500000000000,  0.562500000000000,  0.062500000000000 ]
  mass: 1.007940
- symbol: H  # 12
  coordinates: [  0.812500000000000,  0.562500000000000,  0.062500000000000 ]
  mass: 1.007940
- symbol: H  # 13
  coordinates: [  0.062500000000000,  0.812500000000000,  0.062500000000000 ]
  mass: 1.007940
- symbol: H  # 14
  coordinates: [  0.312500000000000,  0.812500000000000,  0.062500000000000 ]
  mass: 1.007940
- symbol: H  # 15
  coordinates: [  0.562500000000000,  0.812500000000000,  0.062500000000000 ]
  mass: 1.007940
- symbol: H  # 16
  coordinates: [  0.812500000000000,  0.812500000000000,  0.062500000000000 ]
  mass: 1.007940
- symbol: H  # 17
  coordinates: [  0.062500000000000,  0.062500000000000,  0.312500000000000 ]
  mass: 1.007940
- symbol: H  # 18
  coordinates: [  0.312500000000000,  0.062500000000000,  0.312500000000000 ]
  mass: 1.007940
- symbol: H  # 19
  coordinates: [  0.562500000000000,  0.062500000000000,  0.312500000000000 ]
  mass: 1.007940
- symbol: H  # 20
  coordinates: [  0.812500000000000,  0.062500000000000,  0.312500000000000 ]
  mass: 1.007940
- symbol: H  # 21
  coordinates: [  0.062500000000000,  0.312500000000000,  0.312500000000000 ]
  mass: 1.007940
- symbol: H  # 22
  coordinates: [  0.312500000000000,  0.312500000000000,  0.312500000000000 ]
  mass: 1.007940
- symbol: H  # 23
  coordinates: [  0.562500000000000,  0.312500000000000,  0.312500000000000 ]
  mass: 1.007940
- symbol: H  # 24
  coordinates: [  0.812500000000000,  0.312500000000000,  0.312500000000000 ]
  mass: 1.007940
- symbol: H  # 25
  coordinates: [  0.062500000000000,  0.562500000000000,  0.312500000000000 ]
  mass: 1.007940
- symbol: H  # 26
  coordinates: [  0.312500000000000,  0.562500000000000,  0.312500000000000 ]
  mass: 1.007940
- symbol: H  # 27
  coordinates: [  0.562500000000000,  0.562500000000000,  0.312500000000000 ]
  mass: 1.007940
- symbol: H  # 28
  coordinates: [  0.812500000000000,  0.562500000000000,  0.312500000000000 ]
  mass: 1.007940
- symbol: H  # 29
  coordinates: [  0.062500000000000,  0.812500000000000,  0.312500000000000 ]
  mass: 1.007940
- symbol: H  # 30
  coordinates: [  0.312500000000000,  0.812500000000000,  0.312500000000000 ]
  mass: 1.007940
- symbol: H  # 31
  coordinates: [  0.562500000000000,  0.812500000000000,  0.312500000000000 ]
  mass: 1.007940
- symbol: H  # 32
  coordinates: [  0.812500000000000,  0.812500000000000,  0.312500000000000 ]
  mass: 1.007940
- symbol: H  # 33
  coordinates: [  0.062500000000000,  0.062500000000000,  0.562500000000000 ]
  mass: 1.007940
- symbol: H  # 34
  coordinates: [  0.312500000000000,  0.062500000000000,  0.562500000000000 ]
  mass: 1.007940
- symbol: H  # 35
  coordinates: [  0.562500000000000,  0.062500000000000,  0.562500000000000 ]
  mass: 1.007940
- symbol: H  # 36
  coordinates: [  0.812500000000000,  0.062500000000000,  0.562500000000000 ]
  mass: 1.007940
- symbol: H  # 37
  coordinates: [  0.062500000000000,  0.312500000000000,  0.562500000000000 ]
  mass: 1.007940
- symbol: H  # 38
  coordinates: [  0.312500000000000,  0.312500000000000,  0.562500000000000 ]
  mass: 1.007940
- symbol: H  # 39
  coordinates: [  0.562500000000000,  0.312500000000000,  0.562500000000000 ]
  mass: 1.007940
- symbol: H  # 40
  coordinates: [  0.812500000000000,  0.312500000000000,  0.562500000000000 ]
  mass: 1.007940
- symbol: H  # 41
  coordinates: [  0.062500000000000,  0.562500000000000,  0.562500000000000 ]
  mass: 1.007940
- symbol: H  # 42
  coordinates: [  0.312500000000000,  0.562500000000000,  0.562500000000000 ]
  mass: 1.007940
- symbol: H  # 43
  coordinates: [  0.562500000000000,  0.562500000000000,  0.562500000000000 ]
  mass: 1.007940
- symbol: H  # 44
  coordinates: [  0.812500000000000,  0.562500000000000,  0.562500000000000 ]
  mass: 1.007940
- symbol: H  # 45
  coordinates: [  0.062500000000000,  0.812500000000000,  0.562500000000000 ]
  mass: 1.007940
- symbol: H  # 46
  coordinates: [  0.312500000000000,  0.812500000000000,  0.562500000000000 ]
  mass: 1.007940
- symbol: H  # 47
  coordinates: [  0.562500000000000,  0.812500000000000,  0.562500000000000 ]
  mass: 1.007940
- symbol: H  # 48
  coordinates: [  0.812500000000000,  0.812500000000000,  0.562500000000000 ]
  mass: 1.007940
- symbol: H  # 49
  coordinates: [  0.062500000000000,  0.062500000000000,  0.812500000000000 ]
  mass: 1.007940
- symbol: H  # 50
  coordinates: [  0.312500000000000,  0.062500000000000,  0.812500000000000 ]
  mass: 1.007940
- symbol: H  # 51
  coordinates: [  0.562500000000000,  0.062500000000000,  0.812500000000000 ]
  mass: 1.007940
- symbol: H  # 52
  coordinates: [  0.812500000000000,  0.062500000000000,  0.812500000000000 ]
  mass: 1.007940
- symbol: H  # 53
  coordinates: [  0.062500000000000,  0.312500000000000,  0.812500000000000 ]
  mass: 1.007940
- symbol: H  # 54
  coordinates: [  0.312500000000000,  0.312500000000000,  0.812500000000000 ]
  mass: 1.007940
- symbol: H  # 55
  coordinates: [  0.562500000000000,  0.312500000000000,  0.812500000000000 ]
  mass: 1.007940
- symbol: H  # 56
  coordinates: [  0.812500000000000,  0.312500000000000,  0.812500000000000 ]
  mass: 1.007940
- symbol: H  # 57
  coordinates: [  0.062500000000000,  0.562500000000000,  0.812500000000000 ]
  mass: 1.007940
- symbol: H  # 58
  coordinates: [  0.312500000000000,  0.562500000000000,  0.812500000000000 ]
  mass: 1.007940
- symbol: H  # 59
  coordinates: [  0.562500000000000,  0.562500000000000,  0.812500000000000 ]
  mass: 1.007940
- symbol: H  # 60
  coordinates: [  0.812500000000000,  0.562500000000000,  0.812500000000000 ]
  mass: 1.007940
- symbol: H  # 61
  coordinates: [  0.062500000000000,  0.812500000000000,  0.812500000000000 ]
  mass: 1.007940
- symbol: H  # 62
  coordinates: [  0.312500000000000,  0.812500000000000,  0.812500000000000 ]
  mass: 1.007940
- symbol: H  # 63
  coordinates: [  0.562500000000000,  0.812500000000000,  0.812500000000000 ]
  mass: 1.007940
- symbol: H  # 64
  coordinates: [  0.812500000000000,  0.812500000000000,  0.812500000000000 ]
  mass: 1.007940
- symbol: H  # 65
  coordinates: [  0.187500000000000,  0.187500000000000,  0.187500000000000 ]
  mass: 1.007940
- symbol: H  # 66
  coordinates: [  0.437500000000000,  0.187500000000000,  0.187500000000000 ]
  mass: 1.007940
- symbol: H  # 67
  coordinates: [  0.687500000000000,  0.187500000000000,  0.187500000000000 ]
  mass: 1.007940
- symbol: H  # 68
  coordinates: [  0.937500000000000,  0.187500000000000,  0.187500000000000 ]
  mass: 1.007940
- symbol: H  # 69
  coordinates: [  0.187500000000000,  0.437500000000000,  0.187500000000000 ]
  mass: 1.007940
- symbol: H  # 70
  coordinates: [  0.437500000000000,  0.437500000000000,  0.187500000000000 ]
  mass: 1.007940
- symbol: H  # 71
  coordinates: [  0.687500000000000,  0.437500000000000,  0.187500000000000 ]
  mass: 1.007940
- symbol: H  # 72
  coordinates: [  0.937500000000000,  0.437500000000000,  0.187500000000000 ]
  mass: 1.007940
- symbol: H  # 73
  coordinates: [  0.187500000000000,  0.687500000000000,  0.187500000000000 ]
  mass: 1.007940
- symbol: H  # 74
  coordinates: [  0.437500000000000,  0.687500000000000,  0.187500000000000 ]
  mass: 1.007940
- symbol: H  # 75
  coordinates: [  0.687500000000000,  0.687500000000000,  0.187500000000000 ]
  mass: 1.007940
- symbol: H  # 76
  coordinates: [  0.937500000000000,  0.687500000000000,  0.187500000000000 ]
  mass: 1.007940
- symbol: H  # 77
  coordinates: [  0.187500000000000,  0.937500000000000,  0.187500000000000 ]
  mass: 1.007940
- symbol: H  # 78
  coordinates: [  0.437500000000000,  0.937500000000000,  0.187500000000000 ]
  mass: 1.007940
- symbol: H  # 79
  coordinates: [  0.687500000000000,  0.937500000000000,  0.187500000000000 ]
  mass: 1.007940
- symbol: H  # 80
  coordinates: [  0.937500000000000,  0.937500000000000,  0.187500000000000 ]
  mass: 1.007940
- symbol: H  # 81
  coordinates: [  0.187500000000000,  0.187500000000000,  0.437500000000000 ]
  mass: 1.007940
- symbol: H  # 82
  coordinates: [  0.437500000000000,  0.187500000000000,  0.437500000000000 ]
  mass: 1.007940
- symbol: H  # 83
  coordinates: [  0.687500000000000,  0.187500000000000,  0.437500000000000 ]
  mass: 1.007940
- symbol: H  # 84
  coordinates: [  0.937500000000000,  0.187500000000000,  0.437500000000000 ]
  mass: 1.007940
- symbol: H  # 85
  coordinates: [  0.187500000000000,  0.437500000000000,  0.437500000000000 ]
  mass: 1.007940
- symbol: H  # 86
  coordinates: [  0.437500000000000,  0.437500000000000,  0.437500000000000 ]
  mass: 1.007940
- symbol: H  # 87
  coordinates: [  0.687500000000000,  0.437500000000000,  0.437500000000000 ]
  mass: 1.007940
- symbol: H  # 88
  coordinates: [  0.937500000000000,  0.437500000000000,  0.437500000000000 ]
  mass: 1.007940
- symbol: H  # 89
  coordinates: [  0.187500000000000,  0.687500000000000,  0.437500000000000 ]
  mass: 1.007940
- symbol: H  # 90
  coordinates: [  0.437500000000000,  0.687500000000000,  0.437500000000000 ]
  mass: 1.007940
- symbol: H  # 91
  coordinates: [  0.687500000000000,  0.687500000000000,  0.437500000000000 ]
  mass: 1.007940
- symbol: H  # 92
  coordinates: [  0.937500000000000,  0.687500000000000,  0.437500000000000 ]
  mass: 1.007940
- symbol: H  # 93
  coordinates: [  0.187500000000000,  0.937500000000000,  0.437500000000000 ]
  mass: 1.007940
- symbol: H  # 94
  coordinates: [  0.437500000000000,  0.937500000000000,  0.437500000000000 ]
  mass: 1.007940
- symbol: H  # 95
  coordinates: [  0.687500000000000,  0.937500000000000,  0.437500000000000 ]
  mass: 1.007940
- symbol: H  # 96
  coordinates: [  0.937500000000000,  0.937500000000000,  0.437500000000000 ]
  mass: 1.007940
- symbol: H  # 97
  coordinates: [  0.187500000000000,  0.187500000000000,  0.687500000000000 ]
  mass: 1.007940
- symbol: H  # 98
  coordinates: [  0.437500000000000,  0.187500000000000,  0.687500000000000 ]
  mass: 1.007940
- symbol: H  # 99
  coordinates: [  0.687500000000000,  0.187500000000000,  0.687500000000000 ]
  mass: 1.007940
- symbol: H  # 100
  coordinates: [  0.937500000000000,  0.187500000000000,  0.687500000000000 ]
  mass: 1.007940
- symbol: H  # 101
  coordinates: [  0.187500000000000,  0.437500000000000,  0.687500000000000 ]
  mass: 1.007940
- symbol: H  # 102
  coordinates: [  0.437500000000000,  0.437500000000000,  0.687500000000000 ]
  mass: 1.007940
- symbol: H  # 103
  coordinates: [  0.687500000000000,  0.437500000000000,  0.687500000000000 ]
  mass: 1.007940
- symbol: H  # 104
  coordinates: [  0.937500000000000,  0.437500000000000,  0.687500000000000 ]
  mass: 1.007940
- symbol: H  # 105
  coordinates: [  0.187500000000000,  0.687500000000000,  0.687500000000000 ]
  mass: 1.007940
- symbol: H  # 106
  coordinates: [  0.437500000000000,  0.687500000000000,  0.687500000000000 ]
  mass: 1.007940
- symbol: H  # 107
  coordinates: [  0.687500000000000,  0.687500000000000,  0.687500000000000 ]
  mass: 1.007940
- symbol: H  # 108
  coordinates: [  0.937500000000000,  0.687500000000000,  0.687500000000000 ]
  mass: 1.007940
- symbol: H  # 109
  coordinates: [  0.187500000000000,  0.937500000000000,  0.687500000000000 ]
  mass: 1.007940
- symbol: H  # 110
  coordinates: [  0.437500000000000,  0.937500000000000,  0.687500000000000 ]
  mass: 1.007940
- symbol: H  # 111
  coordinates: [  0.687500000000000,  0.937500000000000,  0.687500000000000 ]
  mass: 1.007940
- symbol: H  # 112
  coordinates: [  0.937500000000000,  0.937500000000000,  0.687500000000000 ]
  mass: 1.007940
- symbol: H  # 113
  coordinates: [  0.187500000000000,  0.187500000000000,  0.937500000000000 ]
  mass: 1.007940
- symbol: H  # 114
  coordinates: [  0.437500000000000,  0.187500000000000,  0.937500000000000 ]
  mass: 1.007940
- symbol: H  # 115
  coordinates: [  0.687500000000000,  0.187500000000000,  0.937500000000000 ]
  mass: 1.007940
- symbol: H  # 116
  coordinates: [  0.937500000000000,  0.187500000000000,  0.937500000000000 ]
  mass: 1.007940
- symbol: H  # 117
  coordinates: [  0.187500000000000,  0.437500000000000,  0.937500000000000 ]
  mass: 1.007940
- symbol: H  # 118
  coordinates: [  0.437500000000000,  0.437500000000000,  0.937500000000000 ]
  mass: 1.007940
- symbol: H  # 119
  coordinates: [  0.687500000000000,  0.437500000000000,  0.937500000000000 ]
  mass: 1.007940
- symbol: H  # 120
  coordinates: [  0.937500000000000,  0.437500000000000,  0.937500000000000 ]
  mass: 1.007940
- symbol: H  # 121
  coordinates: [  0.187500000000000,  0.687500000000000,  0.937500000000000 ]
  mass: 1.007940
- symbol: H  # 122
  coordinates: [  0.437500000000000,  0.687500000000000,  0.937500000000000 ]
  mass: 1.007940
- symbol: H  # 123
  coordinates: [  0.687500000000000,  0.687500000000000,  0.937500000000000 ]
  mass: 1.007940
- symbol: H  # 124
  coordinates: [  0.937500000000000,  0.687500000000000,  0.937500000000000 ]
  mass: 1.007940
- symbol: H  # 125
  coordinates: [  0.187500000000000,  0.937500000000000,  0.937500000000000 ]
  mass: 1.007940
- symbol: H  # 126
  coordinates: [  0.437500000000000,  0.937500000000000,  0.937500000000000 ]
  mass: 1.007940
- symbol: H  # 127
  coordinates: [  0.687500000000000,  0.937500000000000,  0.937500000000000 ]
  mass: 1.007940
- symbol: H  # 128
  coordinates: [  0.937500000000000,  0.937500000000000,  0.937500000000000 ]
  mass: 1.007940
- symbol: He # 129
  coordinates: [  0.000000000000000,  0.000000000000000,  0.000000000000000 ]
  mass: 4.002602
- symbol: He # 130
  coordinates: [  0.250000000000000,  0.000000000000000,  0.000000000000000 ]
  mass: 4.002602
- symbol: He # 131
  coordinates: [  0.500000000000000,  0.000000000000000,  0.000000000000000 ]
  mass: 4.002602
- symbol: He # 132
  coordinates: [  0.750000000000000,  0.000000000000000,  0.000000000000000 ]
  mass: 4.002602
- symbol: He # 133
  coordinates: [  0.000000000000000,  0.250000000000000,  0.000000000000000 ]
  mass: 4.002602
- symbol: He # 134
  coordinates: [  0.250000000000000,  0.250000000000000,  0.000000000000000 ]
  mass: 4.002602
- symbol: He # 135
  coordinates: [  0.500000000000000,  0.250000000000000,  0.000000000000000 ]
  mass: 4.002602
- symbol: He # 136
  coordinates: [  0.750000000000000,  0.250000000000000,  0.000000000000000 ]
  mass: 4.002602
- symbol: He # 137
  coordinates: [  0.000000000000000,  0.500000000000000,  0.000000000000000 ]
  mass: 4.002602
- symbol: He # 138
  coordinates: [  0.250000000000000,  0.500000000000000,  0.000000000000000 ]
  mass: 4.002602
- symbol: He # 139
  coordinates: [  0.500000000000000,  0.500000000000000,  0.000000000000000 ]
  mass: 4.002602
- symbol: He # 140
  coordinates: [  0.750000000000000,  0.500000000000000,  0.000000000000000 ]
  mass: 4.002602
- symbol: He # 141
  coordinates: [  0.000000000000000,  0.750000000000000,  0.000000000000000 ]
  mass: 4.002602
- symbol: He # 142
  coordinates: [  0.250000000000000,  0.750000000000000,  0.000000000000000 ]
  mass: 4.002602
- symbol: He # 143
  coordinates: [  0.500000000000000,  0.750000000000000,  0.000000000000000 ]
  mass: 4.002602
- symbol: He # 144
  coordinates: [  0.750000000000000,  0.750000000000000,  0.000000000000000 ]
  mass: 4.002602
- symbol: He # 145
  coordinates: [  0.000000000000000,  0.000000000000000,  0.250000000000000 ]
  mass: 4.002602
- symbol: He # 146
  coordinates: [  0.250000000000000,  0.000000000000000,  0.250000000000000 ]
  mass: 4.002602
- symbol: He # 147
  coordinates: [  0.500000000000000,  0.000000000000000,  0.250000000000000 ]
  mass: 4.002602
- symbol: He # 148
  coordinates: [  0.750000000000000,  0.000000000000000,  0.250000000000000 ]
  mass: 4.002602
- symbol: He # 149
  coordinates: [  0.000000000000000,  0.250000000000000,  0.250000000000000 ]
  mass: 4.002602
- symbol: He # 150
  coordinates: [  0.250000000000000,  0.250000000000000,  0.250000000000000 ]
  mass: 4.002602
- symbol: He # 151
  coordinates: [  0.500000000000000,  0.250000000000000,  0.250000000000000 ]
  mass: 4.002602
- symbol: He # 152
  coordinates: [  0.750000000000000,  0.250000000000000,  0.250000000000000 ]
  mass: 4.002602
- symbol: He # 153
  coordinates: [  0.000000000000000,  0.500000000000000,  0.250000000000000 ]
  mass: 4.002602
- symbol: He # 154
  coordinates: [  0.250000000000000,  0.500000000000000,  0.250000000000000 ]
  mass: 4.002602
- symbol: He # 155
  coordinates: [  0.500000000000000,  0.500000000000000,  0.250000000000000 ]
  mass: 4.002602
- symbol: He # 156
  coordinates: [  0.750000000000000,  0.500000000000000,  0.250000000000000 ]
  mass: 4.002602
- symbol: He # 157
  coordinates: [  0.000000000000000,  0.750000000000000,  0.250000000000000 ]
  mass: 4.002602
- symbol: He # 158
  coordinates: [  0.250000000000000,  0.750000000000000,  0.250000000000000 ]
  mass: 4.002602
- symbol: He # 159
  coordinates: [  0.500000000000000,  0.750000000000000,  0.250000000000000 ]
  mass: 4.002602
- symbol: He # 160
  coordinates: [  0.750000000000000,  0.750000000000000,  0.250000000000000 ]
  mass: 4.002602
- symbol: He # 161
  coordinates: [  0.000000000000000,  0.000000000000000,  0.500000000000000 ]
  mass: 4.002602
- symbol: He # 162
  coordinates: [  0.250000000000000,  0.000000000000000,  0.500000000000000 ]
  mass: 4.002602
- symbol: He # 163
  coordinates: [  0.500000000000000,  0.000000000000000,  0.500000000000000 ]
  mass: 4.002602
- symbol: He # 164
  coordinates: [  0.750000000000000,  0.000000000000000,  0.500000000000000 ]
  mass: 4.002602
- symbol: He # 165
  coordinates: [  0.000000000000000,  0.250000000000000,  0.500000000000000 ]
  mass: 4.002602
- symbol: He # 166
  coordinates: [  0.250000000000000,  0.250000000000000,  0.500000000000000 ]
  mass: 4.002602
- symbol: He # 167
  coordinates: [  0.500000000000000,  0.250000000000000,  0.500000000000000 ]
  mass: 4.002602
- symbol: He # 168
  coordinates: [  0.750000000000000,  0.250000000000000,  0.500000000000000 ]
  mass: 4.002602
- symbol: He # 169
  coordinates: [  0.000000000000000,  0.500000000000000,  0.500000000000000 ]
  mass: 4.002602
- symbol: He # 170
  coordinates: [  0.250000000000000,  0.500000000000000,  0.500000000000000 ]
  mass: 4.002602
- symbol: He # 171
  coordinates: [  0.500000000000000,  0.500000000000000,  0.500000000000000 ]
  mass: 4.002602
- symbol: He # 172
  coordinates: [  0.750000000000000,  0.500000000000000,  0.500000000000000 ]
  mass: 4.002602
- symbol: He # 173
  coordinates: [  0.000000000000000,  0.750000000000000,  0.500000000000000 ]
  mass: 4.002602
- symbol: He # 174
  coordinates: [  0.250000000000000,  0.750000000000000,  0.500000000000000 ]
  mass: 4.002602
- symbol: He # 175
  coordinates: [  0.500000000000000,  0.750000000000000,  0.500000000000000 ]
  mass: 4.002602
- symbol: He # 176
  coordinates: [  0.750000000000000,  0.750000000000000,  0.500000000000000 ]
  mass: 4.002602
- symbol: He # 177
  coordinates: [  0.000000000000000,  0.000000000000000,  0.750000000000000 ]
  mass: 4.002602
- symbol: He # 178
  coordinates: [  0.250000000000000,  0.000000000000000,  0.750000000000000 ]
  mass: 4.002602
- symbol: He # 179
  coordinates: [  0.500000000000000,  0.000000000000000,  0.750000000000000 ]
  mass: 4.002602
- symbol: He # 180
  coordinates: [  0.750000000000000,  0.000000000000000,  0.750000000000000 ]
  mass: 4.002602
- symbol: He # 181
  coordinates: [  0.000000000000000,  0.250000000000000,  0.750000000000000 ]
  mass: 4.002602
- symbol: He # 182
  coordinates: [  0.250000000000000,  0.250000000000000,  0.750000000000000 ]
  mass: 4.002602
- symbol: He # 183
  coordinates: [  0.500000000000000,  0.250000000000000,  0.750000000000000 ]
  mass: 4.002602
- symbol: He # 184
  coordinates: [  0.750000000000000,  0.250000000000000,  0.750000000000000 ]
  mass: 4.002602
- symbol: He # 185
  coordinates: [  0.000000000000000,  0.500000000000000,  0.750000000000000 ]
  mass: 4.002602
- symbol: He # 186
  coordinates: [  0.250000000000000,  0.500000000000000,  0.750000000000000 ]
  mass: 4.002602
- symbol: He # 187
  coordinates: [  0.500000000000000,  0.500000000000000,  0.750000000000000 ]
  mass: 4.002602
- symbol: He # 188
  coordinates: [  0.750000000000000,  0.500000000000000,  0.750000000000000 ]
  mass: 4.002602
- symbol: He # 189
  coordinates: [  0.000000000000000,  0.750000000000000,  0.750000000000000 ]
  mass: 4.002602
- symbol: He # 190
  coordinates: [  0.250000000000000,  0.750000000000000,  0.750000000000000 ]
  mass: 4.002602
- symbol: He # 191
  coordinates: [  0.500000000000000,  0.750000000000000,  0.750000000000000 ]
  mass: 4.002602
- symbol: He # 192
  coordinates: [  0.750000000000000,  0.750000000000000,  0.750000000000000 ]
  mass: 4.002602